                         Program Version 3.0.2 -  RELEASE  -
|  1> ! B3LYP/G aug-cc-pVDZ TightSCF TightOpt
|  2> %scf MaxIter 1000 end
|  3> %geom MaxIter 1000 end
|  4> * xyz 0 1
|  5>   N   0.42709049402407     -1.33389600028307      0.05599770622790
|  6>   N   0.63260147896238     -2.46750176117064      0.05606136755812
|  7>
|  8> *
|  9>
| 10>                          ****END OF INPUT****
 Total Charge           Charge          ....    0
 Multiplicity           Mult            ....    1
 Number of Electrons    NEL             ....   14
FINAL SINGLE POINT ENERGY      -109.537083409041
FINAL SINGLE POINT ENERGY      -109.542756641908
FINAL SINGLE POINT ENERGY      -109.542818372700
FINAL SINGLE POINT ENERGY      -109.542820520145
                    ***********************HURRAY********************

CARTESIAN COORDINATES (ANGSTROEM)
---------------------------------
  N      0.431345   -1.357366    0.055999
  N      0.628347   -2.444032    0.056060

 Multiplicity           Mult            ....    1
 Number of Electrons    NEL             ....   14
 Basis Dimension        Dim             ....   46

ORBITAL ENERGIES
----------------

  NO   OCC          E(Eh)            E(eV)
   0   2.0000     -14.450115      -393.2076
   1   2.0000     -14.448599      -393.1664
   2   2.0000      -1.134986       -30.8845
   3   2.0000      -0.563244       -15.3267
   4   2.0000      -0.471924       -12.8417
   5   2.0000      -0.471907       -12.8413
   6   2.0000      -0.438458       -11.9311
   7   0.0000      -0.039746        -1.0815
   8   0.0000      -0.039727        -1.0810
   9   0.0000       0.057070         1.5529
  10   0.0000       0.061853         1.6831
  11   0.0000       0.079571         2.1652

MULLIKEN ATOMIC CHARGES
-----------------------
   0 N :    0.000000
   1 N :   -0.000000
Sum of atomic charges:    0.0000000

LOEWDIN ATOMIC CHARGES
----------------------
   0 N :    0.000000
   1 N :   -0.000000

  Mayer bond orders larger than 0.1
B(  0-N ,  1-N ) :   2.0544

FINAL SINGLE POINT ENERGY      -109.542820520921

DIPOLE MOMENT
-------------
                                X             Y             Z
Electronic contribution:     -0.00000       0.00000       0.00000
Nuclear contribution   :      0.00000       0.00000       0.00000
                        -----------------------------------------
Total Dipole Moment    :     -0.00000       0.00000       0.00000
                        -----------------------------------------
Magnitude (a.u.)       :      0.00000
Magnitude (Debye)      :      0.00000

                             ****ORCA TERMINATED NORMALLY****
TOTAL RUN TIME: 0 days 0 hours 0 minutes 19 seconds 618 msec
