                         Program Version 3.0.2 -  RELEASE  -
|  1> ! B3LYP/G aug-cc-pVDZ TightSCF TightOpt
|  2> %scf MaxIter 1000 end
|  3> %geom MaxIter 1000 end
|  4> * xyz 1 1
|  5>   N   0.26616781318024     -0.44839959137478      0.05598788021872
|  6>   H   0.15319698369903      0.16672244895796      0.90762692920401
|  7>   H   0.15474323013429      0.16697490387053     -0.79567388320873
|  8>
|  9> *
| 10>
| 11>                          ****END OF INPUT****
 Total Charge           Charge          ....    1
 Multiplicity           Mult            ....    1
 Number of Electrons    NEL             ....    8
FINAL SINGLE POINT ENERGY       -55.421996885830
FINAL SINGLE POINT ENERGY       -55.422024310190
FINAL SINGLE POINT ENERGY       -55.422025961816
FINAL SINGLE POINT ENERGY       -55.422026870450
                    ***********************HURRAY********************

CARTESIAN COORDINATES (ANGSTROEM)
---------------------------------
  N      0.266854   -0.452161    0.055987
  H      0.152852    0.168603    0.909362
  H      0.154402    0.168856   -0.797409

 Multiplicity           Mult            ....    1
 Number of Electrons    NEL             ....    8
 Basis Dimension        Dim             ....   41

ORBITAL ENERGIES
----------------

  NO   OCC          E(Eh)            E(eV)
   0   2.0000     -14.889388      -405.1609
   1   2.0000      -1.265568       -34.4379
   2   2.0000      -0.891818       -24.2676
   3   2.0000      -0.744733       -20.2652
   4   0.0000      -0.610091       -16.6014
   5   0.0000      -0.265745        -7.2313
   6   0.0000      -0.206089        -5.6080
   7   0.0000      -0.118203        -3.2165
   8   0.0000      -0.114357        -3.1118

MULLIKEN ATOMIC CHARGES
-----------------------
   0 N :    0.446437
   1 H :    0.276789
   2 H :    0.276774
Sum of atomic charges:    1.0000000

LOEWDIN ATOMIC CHARGES
----------------------
   0 N :    0.892821
   1 H :    0.053590
   2 H :    0.053589

  Mayer bond orders larger than 0.1
B(  0-N ,  1-H ) :   0.8637 B(  0-N ,  2-H ) :   0.8638

FINAL SINGLE POINT ENERGY       -55.422026888353

DIPOLE MOMENT
-------------
                                X             Y             Z
Electronic contribution:      0.02841      -0.15417       0.00000
Nuclear contribution   :     -0.18564       1.01800      -0.00002
                        -----------------------------------------
Total Dipole Moment    :     -0.15724       0.86382      -0.00001
                        -----------------------------------------
Magnitude (a.u.)       :      0.87802
Magnitude (Debye)      :      2.23174

                             ****ORCA TERMINATED NORMALLY****
TOTAL RUN TIME: 0 days 0 hours 0 minutes 7 seconds 999 msec
