 Gaussian 09, Revision B.01,
 Gaussian 09:  EM64L-G09RevB.01 12-Aug-2010

 -------------------------------------------------
 #p Temperature=298.15 opt freq UB3LYP/aug-cc-pVDZ
 -------------------------------------------------

 --------------------------------------------
 1,2-(CH3)2-C2H5-N2-UB3LYP-aug-cc-pVDZ-Duplet
 --------------------------------------------
 Symbolic Z-matrix:
 Charge =  0 Multiplicity = 2

 SCF Done:  E(UB3LYP) =  -267.278920609     A.U. after   18 cycles
 SCF Done:  E(UB3LYP) =  -267.288329103     A.U. after   31 cycles
 SCF Done:  E(UB3LYP) =  -267.288833245     A.U. after   21 cycles
 SCF Done:  E(UB3LYP) =  -267.271406134     A.U. after   20 cycles
 SCF Done:  E(UB3LYP) =  -267.289298836     A.U. after   23 cycles
 SCF Done:  E(UB3LYP) =  -267.289329080     A.U. after   20 cycles
 SCF Done:  E(UB3LYP) =  -267.295123722     A.U. after   19 cycles
 SCF Done:  E(UB3LYP) =  -267.302044754     A.U. after   19 cycles
 SCF Done:  E(UB3LYP) =  -267.287244762     A.U. after   18 cycles
 SCF Done:  E(UB3LYP) =  -267.306306565     A.U. after   19 cycles
 SCF Done:  E(UB3LYP) =  -267.331322797     A.U. after   16 cycles
 SCF Done:  E(UB3LYP) =  -267.331210563     A.U. after   17 cycles
 SCF Done:  E(UB3LYP) =  -267.331416071     A.U. after   18 cycles
 SCF Done:  E(UB3LYP) =  -267.331558922     A.U. after   16 cycles
 SCF Done:  E(UB3LYP) =  -267.331706207     A.U. after   17 cycles
 SCF Done:  E(UB3LYP) =  -267.331714643     A.U. after   16 cycles
 SCF Done:  E(UB3LYP) =  -267.331734890     A.U. after   16 cycles
 SCF Done:  E(UB3LYP) =  -267.331769952     A.U. after   17 cycles
 SCF Done:  E(UB3LYP) =  -267.331771555     A.U. after   11 cycles
 Optimization completed.
    -- Stationary point found.
 Normal termination of Gaussian 09 at Sat Feb 19 04:19:29 2005.

 ----------------------------------------------------------------------
 #P Geom=AllCheck Guess=TCheck SCRF=Check GenChk UB3LYP/Aug-CC-pVDZ Fre
 q
 ----------------------------------------------------------------------

 1,2-(CH3)2-C2H5-N2-UB3LYP-aug-cc-pVDZ-Duplet
 --------------------------------------------
 Redundant internal coordinates taken from checkpoint file:
 /home/ubuntu/g09/Gau-23326.chk
 Charge =  0 Multiplicity = 2

                         Standard orientation:
 ---------------------------------------------------------------------
 Center     Atomic      Atomic             Coordinates (Angstroms)
 Number     Number       Type             X           Y           Z
 ---------------------------------------------------------------------
      1          6           0       -0.324970    0.000020    0.031841
      2          7           0        1.079190   -0.000584   -0.713352
      3          7           0        2.108477   -0.000222   -0.156718
      4          6           0       -0.118478    0.000240    1.542085
      5          1           0        0.438153    0.888115    1.866665
      6          1           0       -1.096455    0.001412    2.043522
      7          1           0        0.436305   -0.888593    1.867236
      8          6           0       -1.019520   -1.265856   -0.466391
      9          1           0       -2.042122   -1.307680   -0.065423
     10          1           0       -1.076054   -1.275809   -1.562228
     11          1           0       -0.484504   -2.166208   -0.137226
     12          6           0       -1.018625    1.266173   -0.466810
     13          1           0       -2.041132    1.308851   -0.065712
     14          1           0       -0.482946    2.166284   -0.138069
     15          1           0       -1.075353    1.275805   -1.562631
 ---------------------------------------------------------------------

 SCF Done:  E(UB3LYP) =  -267.331771555     A.U. after    1 cycles

 The electronic state is 2-A.
 Alpha  occ. eigenvalues --  -14.40523 -14.38784 -10.25261 -10.19402 -10.19400
 Alpha  occ. eigenvalues --  -10.19088  -1.06367  -0.84265  -0.70946  -0.70937
 Alpha  occ. eigenvalues --   -0.64804  -0.52674  -0.48440  -0.46864  -0.45988
 Alpha  occ. eigenvalues --   -0.42495  -0.42236  -0.39416  -0.39060  -0.38860
 Alpha  occ. eigenvalues --   -0.38317  -0.35553  -0.35383  -0.19185
 Alpha virt. eigenvalues --   -0.03147  -0.01498   0.00855   0.00885   0.01515
 Alpha virt. eigenvalues --    0.03127   0.03413   0.04250   0.04280   0.05176
 Alpha virt. eigenvalues --    0.06751   0.07048   0.08753   0.09059   0.09596

  Beta  occ. eigenvalues --  -14.40232 -14.37407 -10.24767 -10.19419 -10.19417
  Beta  occ. eigenvalues --  -10.19085  -1.04758  -0.83518  -0.70896  -0.70835
  Beta  occ. eigenvalues --   -0.63075  -0.51700  -0.46630  -0.46549  -0.44945
  Beta  occ. eigenvalues --   -0.42012  -0.41208  -0.38690  -0.38298  -0.38051
  Beta  occ. eigenvalues --   -0.37437  -0.35290  -0.34394
  Beta virt. eigenvalues --   -0.06567  -0.02070  -0.01472   0.00844   0.00889
  Beta virt. eigenvalues --    0.01659   0.03128   0.03440   0.04266   0.04290
  Beta virt. eigenvalues --    0.05290   0.06725   0.07167   0.08795   0.09105

 Mulliken atomic charges:
              1
     1  C   -2.145397
     2  N    0.239669
     3  N   -0.650573
     4  C    1.626402
     5  H   -0.208736
     6  H   -0.197929
     7  H   -0.208773
     8  C    1.429847
     9  H   -0.184414
    10  H   -0.226657
    11  H   -0.246386
    12  C    1.430472
    13  H   -0.184608
    14  H   -0.246221
    15  H   -0.226698
 Sum of Mulliken atomic charges =   0.00000

 Dipole moment (field-independent basis, Debye):
    X=             -2.8602    Y=              0.0008    Z=              0.7069  Tot=              2.9463
 Quadrupole moment (field-independent basis, Debye-Ang):
   XX=            -43.7380   YY=            -37.2526   ZZ=            -39.0819
   XY=              0.0008   XZ=              0.8364   YZ=             -0.0014

  Exact polarizability:  75.644   0.000  61.531   1.412   0.002  64.089
 Approx polarizability: 110.814   0.001  83.273   4.696   0.004  88.813

                     1                      2                      3
                     A                      A                      A
 Frequencies --    60.6166               195.1380               248.3149
 Red. masses --     6.1467                 1.0126                 1.1292
 Frc consts  --     0.0133                 0.0227                 0.0410
 IR Inten    --     0.1393                 0.0004                 0.1990

                     4                      5                      6
                     A                      A                      A
 Frequencies --   254.6912               281.9934               339.3986
 Red. masses --     1.0435                 2.7864                 2.7233
 Frc consts  --     0.0399                 0.1305                 0.1848
 IR Inten    --     0.0048                 1.3347                 1.2217

                     7                      8                      9
                     A                      A                      A
 Frequencies --   345.7401               390.3464               437.8087
 Red. masses --     3.5303                 2.9099                 2.8897
 Frc consts  --     0.2486                 0.2612                 0.3263
 IR Inten    --     1.7586                 0.0842                 3.3094

                    10                     11                     12
                     A                      A                      A
 Frequencies --   452.1468               542.9277               782.1415
 Red. masses --     2.6052                 5.4662                 3.2671
 Frc consts  --     0.3138                 0.9493                 1.1775
 IR Inten    --     0.2744                 9.5047                 0.0433

                    13                     14                     15
                     A                      A                      A
 Frequencies --   934.6723               937.8858               963.4077
 Red. masses --     1.5006                 1.5562                 1.2068
 Frc consts  --     0.7724                 0.8065                 0.6600
 IR Inten    --     0.3111                 0.5326                 0.0003

                    16                     17                     18
                     A                      A                      A
 Frequencies --  1027.3178              1038.3782              1157.9942
 Red. masses --     1.4544                 1.4520                 1.8197
 Frc consts  --     0.9043                 0.9224                 1.4377
 IR Inten    --     0.2989                 0.5630                15.1512

                    19                     20                     21
                     A                      A                      A
 Frequencies --  1252.0838              1269.9817              1383.7848
 Red. masses --     2.7580                 2.8807                 1.2651
 Frc consts  --     2.5475                 2.7375                 1.4273
 IR Inten    --    10.1798                 9.9418                11.8944

                    22                     23                     24
                     A                      A                      A
 Frequencies --  1388.1528              1412.7153              1449.8795
 Red. masses --     1.2708                 1.2218                 1.0448
 Frc consts  --     1.4428                 1.4367                 1.2940
 IR Inten    --    15.6733                 1.8332                 0.0482

                    25                     26                     27
                     A                      A                      A
 Frequencies --  1463.0018              1465.9277              1476.8171
 Red. masses --     1.0467                 1.0461                 1.0570
 Frc consts  --     1.3200                 1.3245                 1.3582
 IR Inten    --     0.0236                 0.2245                 5.5080

                    28                     29                     30
                     A                      A                      A
 Frequencies --  1477.5365              1496.1797              1903.3439
 Red. masses --     1.0679                 1.0515                13.8301
 Frc consts  --     1.3736                 1.3869                29.5195
 IR Inten    --     4.1973                13.9860                20.6605

                    31                     32                     33
                     A                      A                      A
 Frequencies --  3033.6591              3035.5567              3042.3703
 Red. masses --     1.0350                 1.0354                 1.0363
 Frc consts  --     5.6122                 5.6215                 5.6513
 IR Inten    --    18.3301                14.5525                18.1616

                    34                     35                     36
                     A                      A                      A
 Frequencies --  3105.8849              3107.3763              3113.8669
 Red. masses --     1.1015                 1.1013                 1.1008
 Frc consts  --     6.2606                 6.2654                 6.2885
 IR Inten    --     7.0658                 5.6587                36.1002

                    37                     38                     39
                     A                      A                      A
 Frequencies --  3119.3257              3122.6364              3125.0222
 Red. masses --     1.1036                 1.1025                 1.1026
 Frc consts  --     6.3268                 6.3338                 6.3440
 IR Inten    --     2.4923                32.2260                25.1808

 - Thermochemistry -
 -------------------
 Temperature   298.150 Kelvin.  Pressure   1.00000 Atm.
 Atom     1 has atomic number  6 and mass  12.00000

 Molecular mass:    85.07657 amu.
 Principal axes and moments of inertia in atomic units:
                           1         2         3
     Eigenvalues --   405.27744 619.49591 623.04875
           X            0.99880   0.04906  -0.00001
           Y           -0.00005   0.00111   1.00000
           Z           -0.04906   0.99880  -0.00111
 This molecule is an asymmetric top.
 Rotational symmetry number  1.
 Rotational temperatures (Kelvin)      0.21371     0.13981     0.13902
 Rotational constants (GHZ):           4.45310     2.91324     2.89663
 Zero-point vibrational energy     332777.3 (Joules/Mol)
                                   79.53569 (Kcal/Mol)
 Warning -- explicit consideration of  11 degrees of freedom as
           vibrations may cause significant error
 Vibrational temperatures:     87.21   280.76   357.27   366.44   405.73
          (Kelvin)            488.32   497.44   561.62   629.91   650.54
                              781.15  1125.33  1344.78  1349.41  1386.13
                             1478.08  1493.99  1666.09  1801.47  1827.22
                             1990.96  1997.24  2032.58  2086.05  2104.93
                             2109.14  2124.81  2125.84  2152.67  2738.48
                             4364.75  4367.48  4377.29  4468.67  4470.82
                             4480.15  4488.01  4492.77  4496.20

 Zero-point correction=                           0.126748 (Hartree/Particle)
 Thermal correction to Energy=                    0.134551
 Thermal correction to Enthalpy=                  0.135495
 Thermal correction to Gibbs Free Energy=         0.094962
 Sum of electronic and zero-point Energies=           -267.205023
 Sum of electronic and thermal Energies=              -267.197221
 Sum of electronic and thermal Enthalpies=            -267.196277
 Sum of electronic and thermal Free Energies=         -267.236810

                     E (Thermal)             CV                S
                      KCal/Mol        Cal/Mol-Kelvin    Cal/Mol-Kelvin
 Total                   84.432             27.678             85.309
 Electronic               0.000              0.000              1.377
 Translational            0.889              2.981             39.236
 Rotational               0.889              2.981             26.550
 Vibrational             82.654             21.717             18.145
 Vibration     1          0.597              1.973              4.437
 Vibration     2          0.636              1.847              2.178
 Vibration     3          0.662              1.766              1.743
 Vibration     4          0.665              1.755              1.698
 Vibration     5          0.681              1.707              1.522
 Vibration     6          0.719              1.597              1.215
 Vibration     7          0.724              1.584              1.186
 Vibration     8          0.758              1.491              0.999
 Vibration     9          0.798              1.388              0.834
 Vibration    10          0.811              1.356              0.789
 Vibration    11          0.898              1.155              0.559

 Optimization completed.
    -- Stationary point found.
 Normal termination of Gaussian 09 at Sat Feb 19 04:27:34 2005.
