 Gaussian 09, Revision B.01,
 Gaussian 09:  EM64L-G09RevB.01 12-Aug-2010

 -------------------------------------------------
 #p Temperature=298.15 opt freq UB3LYP/aug-cc-pVDZ
 -------------------------------------------------

 -------------------------------------------
 1,2-(CH3)2-C2H5+-UB3LYP-aug-cc-pVDZ-Triplet
 -------------------------------------------
 Symbolic Z-matrix:
 Charge =  1 Multiplicity = 3

 SCF Done:  E(UB3LYP) =  -157.380987282     A.U. after   38 cycles
 SCF Done:  E(UB3LYP) =  -157.406107371     A.U. after   16 cycles
 SCF Done:  E(UB3LYP) =  -157.417114927     A.U. after   14 cycles
 SCF Done:  E(UB3LYP) =  -157.418991932     A.U. after   12 cycles
 SCF Done:  E(UB3LYP) =  -157.419904739     A.U. after   12 cycles
 SCF Done:  E(UB3LYP) =  -157.420070677     A.U. after   10 cycles
 SCF Done:  E(UB3LYP) =  -157.420136781     A.U. after   11 cycles
 SCF Done:  E(UB3LYP) =  -157.420159578     A.U. after   10 cycles
 SCF Done:  E(UB3LYP) =  -157.420171361     A.U. after   10 cycles
 SCF Done:  E(UB3LYP) =  -157.420173789     A.U. after    9 cycles
 SCF Done:  E(UB3LYP) =  -157.416566191     A.U. after   14 cycles
 SCF Done:  E(UB3LYP) =  -157.420176214     A.U. after   14 cycles
 SCF Done:  E(UB3LYP) =  -157.419882945     A.U. after   14 cycles
 SCF Done:  E(UB3LYP) =  -157.420175704     A.U. after   14 cycles
 SCF Done:  E(UB3LYP) =  -157.420174308     A.U. after    9 cycles
 SCF Done:  E(UB3LYP) =  -157.420173933     A.U. after    9 cycles
 SCF Done:  E(UB3LYP) =  -157.420173893     A.U. after    9 cycles
 SCF Done:  E(UB3LYP) =  -157.420172726     A.U. after    9 cycles
 SCF Done:  E(UB3LYP) =  -157.420171570     A.U. after    9 cycles
 Optimization completed.
    -- Stationary point found.
 Normal termination of Gaussian 09 at Sat Feb 19 06:41:11 2005.

 ----------------------------------------------------------------------
 #P Geom=AllCheck Guess=TCheck SCRF=Check GenChk UB3LYP/Aug-CC-pVDZ Fre
 q
 ----------------------------------------------------------------------

 1,2-(CH3)2-C2H5+-UB3LYP-aug-cc-pVDZ-Triplet
 -------------------------------------------
 Redundant internal coordinates taken from checkpoint file:
 /home/ubuntu/g09/Gau-2155.chk
 Charge =  1 Multiplicity = 3

                         Standard orientation:
 ---------------------------------------------------------------------
 Center     Atomic      Atomic             Coordinates (Angstroms)
 Number     Number       Type             X           Y           Z
 ---------------------------------------------------------------------
      1          6           0        0.051986   -0.210519   -0.260639
      2          6           0       -1.207451   -0.906061    0.047633
      3          1           0       -0.965810   -1.972987   -0.172032
      4          1           0       -1.516218   -0.829394    1.103794
      5          1           0       -2.043060   -0.636335   -0.612468
      6          6           0       -0.305863    1.534782    0.028425
      7          1           0       -0.044876    1.677240    1.080934
      8          1           0        0.394523    1.941648   -0.708107
      9          1           0       -1.363041    1.642669   -0.215144
     10          6           0        1.464936   -0.445167    0.050925
     11          1           0        1.695784   -0.369681    1.127864
     12          1           0        1.666308   -1.485499   -0.284858
     13          1           0        2.154736    0.194124   -0.518048
 ---------------------------------------------------------------------

 SCF Done:  E(UB3LYP) =  -157.420171570     A.U. after    1 cycles

 The electronic state is 3-A.
 Alpha  occ. eigenvalues --  -10.47984 -10.46244 -10.41295 -10.40527  -1.04750
 Alpha  occ. eigenvalues --   -0.93234  -0.93033  -0.76733  -0.68201  -0.67352
 Alpha  occ. eigenvalues --   -0.67018  -0.63417  -0.62766  -0.60780  -0.59915
 Alpha  occ. eigenvalues --   -0.53676  -0.43523
 Alpha virt. eigenvalues --   -0.17373  -0.16087  -0.12456  -0.12338  -0.11705
 Alpha virt. eigenvalues --   -0.10395  -0.09982  -0.09244  -0.08354  -0.07860
 Alpha virt. eigenvalues --   -0.05869  -0.05631  -0.05302  -0.04398  -0.03868

  Beta  occ. eigenvalues --  -10.46049 -10.45529 -10.41192 -10.40485  -1.01285
  Beta  occ. eigenvalues --   -0.92221  -0.90549  -0.73124  -0.66198  -0.66117
  Beta  occ. eigenvalues --   -0.64363  -0.62110  -0.61498  -0.59722  -0.58556
  Beta virt. eigenvalues --   -0.42803  -0.27857  -0.16421  -0.12964  -0.12289
  Beta virt. eigenvalues --   -0.12047  -0.11564  -0.09799  -0.09670  -0.08895
  Beta virt. eigenvalues --   -0.08215  -0.07602  -0.05496  -0.05088  -0.04312

 Mulliken atomic charges:
              1
     1  C   -0.458868
     2  C    0.767019
     3  H   -0.094596
     4  H   -0.048305
     5  H   -0.111462
     6  C    0.734290
     7  H   -0.053730
     8  H   -0.049970
     9  H   -0.199676
    10  C    0.831990
    11  H   -0.066970
    12  H   -0.105329
    13  H   -0.144392
 Sum of Mulliken atomic charges =   1.00000

 Dipole moment (field-independent basis, Debye):
    X=             -0.2100    Y=              0.6171    Z=              0.2712  Tot=              0.7060
 Quadrupole moment (field-independent basis, Debye-Ang):
   XX=            -16.6307   YY=            -15.4386   ZZ=            -23.8984
   XY=             -0.2064   XZ=             -0.0840   YZ=              0.0349

  Exact polarizability:  60.392   0.594  59.810  -0.125   0.031  39.350
 Approx polarizability:  81.114   0.728  85.279  -0.407   0.339  56.925

                     1                      2                      3
                     A                      A                      A
 Frequencies --    66.9063               158.9955               175.5850
 Red. masses --     1.0670                 1.1033                 1.3914
 Frc consts  --     0.0028                 0.0164                 0.0253
 IR Inten    --     1.3853                 0.1087                 2.7637

                     4                      5                      6
                     A                      A                      A
 Frequencies --   192.2455               280.4396               347.8524
 Red. masses --     1.9939                 2.3425                 2.8444
 Frc consts  --     0.0434                 0.1085                 0.2028
 IR Inten    --    10.6609                 7.4606                 5.7359

                     7                      8                      9
                     A                      A                      A
 Frequencies --   417.8761               667.0857               730.1923
 Red. masses --     2.8612                 1.0604                 1.1081
 Frc consts  --     0.2944                 0.2780                 0.3481
 IR Inten    --    10.8451                41.9189                 2.0192

                    10                     11                     12
                     A                      A                      A
 Frequencies --   826.3750               830.6400               918.9482
 Red. masses --     2.2077                 1.4639                 1.2213
 Frc consts  --     0.8883                 0.5951                 0.6076
 IR Inten    --     2.9681                 5.7420                 0.0933

                    13                     14                     15
                     A                      A                      A
 Frequencies --  1033.4772              1081.4967              1177.8198
 Red. masses --     1.5260                 1.7906                 4.3003
 Frc consts  --     0.9603                 1.2340                 3.5149
 IR Inten    --    15.0417                31.7009                39.4595

                    16                     17                     18
                     A                      A                      A
 Frequencies --  1231.8796              1286.2892              1303.4658
 Red. masses --     1.1389                 1.0735                 1.1947
 Frc consts  --     1.0183                 1.0465                 1.1960
 IR Inten    --    16.1136                28.0629                18.3921

                    19                     20                     21
                     A                      A                      A
 Frequencies --  1322.8892              1344.5211              1375.0314
 Red. masses --     1.1382                 1.0525                 1.1078
 Frc consts  --     1.1735                 1.1210                 1.2341
 IR Inten    --    30.0165                25.7498                 5.2680

                    22                     23                     24
                     A                      A                      A
 Frequencies --  1405.4782              1412.8990              1432.7396
 Red. masses --     1.0900                 1.0852                 1.0678
 Frc consts  --     1.2686                 1.2764                 1.2914
 IR Inten    --     3.7108                 8.1109                17.8758

                    25                     26                     27
                     A                      A                      A
 Frequencies --  2885.1732              2938.1955              3023.5871
 Red. masses --     1.0526                 1.0499                 1.0798
 Frc consts  --     5.1623                 5.3401                 5.8165
 IR Inten    --   152.1509                87.8713                 5.9550

                    28                     29                     30
                     A                      A                      A
 Frequencies --  3030.8654              3056.0500              3092.1596
 Red. masses --     1.0791                 1.0177                 1.0941
 Frc consts  --     5.8402                 5.5999                 6.1636
 IR Inten    --    10.7385                17.9873                 4.4653

                    31                     32                     33
                     A                      A                      A
 Frequencies --  3102.3313              3212.9263              3245.9893
 Red. masses --     1.0974                 1.1147                 1.1134
 Frc consts  --     6.2231                 6.7798                 6.9117
 IR Inten    --     2.2975                11.6019                 2.1272

 - Thermochemistry -
 -------------------
 Temperature   298.150 Kelvin.  Pressure   1.00000 Atm.
 Atom     1 has atomic number  6 and mass  12.00000

 Molecular mass:    57.07043 amu.
 Principal axes and moments of inertia in atomic units:
                           1         2         3
     Eigenvalues --   227.36768 250.51975 435.95582
           X            0.99937   0.03538   0.00051
           Y           -0.03537   0.99937  -0.00370
           Z           -0.00064   0.00368   0.99999
 This molecule is an asymmetric top.
 Rotational symmetry number  1.
 Rotational temperatures (Kelvin)      0.38094     0.34574     0.19868
 Rotational constants (GHZ):           7.93754     7.20399     4.13973
 Zero-point vibrational energy     290742.8 (Joules/Mol)
                                   69.48920 (Kcal/Mol)
 Warning -- explicit consideration of   7 degrees of freedom as
           vibrations may cause significant error
 Vibrational temperatures:     96.26   228.76   252.63   276.60   403.49
          (Kelvin)            500.48   601.23   959.79  1050.58  1188.97
                             1195.10  1322.16  1486.94  1556.03  1694.62
                             1772.40  1850.68  1875.39  1903.34  1934.46
                             1978.36  2022.17  2032.84  2061.39  4151.12
                             4227.40  4350.26  4360.73  4396.97  4448.92
                             4463.56  4622.68  4670.25

 Zero-point correction=                           0.110738 (Hartree/Particle)
 Thermal correction to Energy=                    0.117855
 Thermal correction to Enthalpy=                  0.118800
 Thermal correction to Gibbs Free Energy=         0.080092
 Sum of electronic and zero-point Energies=           -157.309433
 Sum of electronic and thermal Energies=              -157.302316
 Sum of electronic and thermal Enthalpies=            -157.301372
 Sum of electronic and thermal Free Energies=         -157.340079

                     E (Thermal)             CV                S
                      KCal/Mol        Cal/Mol-Kelvin    Cal/Mol-Kelvin
 Total                   73.955             23.644             81.466
 Electronic               0.000              0.000              2.183
 Translational            0.889              2.981             38.046
 Rotational               0.889              2.981             24.722
 Vibrational             72.178             17.683             16.515
 Vibration     1          0.598              1.970              4.242
 Vibration     2          0.621              1.893              2.562
 Vibration     3          0.628              1.872              2.375
 Vibration     4          0.634              1.851              2.206
 Vibration     5          0.680              1.710              1.531
 Vibration     6          0.725              1.580              1.176
 Vibration     7          0.781              1.431              0.899

 Optimization completed.
    -- Stationary point found.
 Normal termination of Gaussian 09 at Sat Feb 19 06:44:04 2005.
