 Gaussian 09, Revision B.01,
 Gaussian 09:  EM64L-G09RevB.01 12-Aug-2010

 -------------------------------------------------
 #p Temperature=298.15 opt freq UB3LYP/aug-cc-pVDZ
 -------------------------------------------------

 ----------------------------------------------
 1,2-(CH3)2-C2H5-N2+-UB3LYP-aug-cc-pVDZ-Triplet
 ----------------------------------------------
 Symbolic Z-matrix:
 Charge =  1 Multiplicity = 3

 SCF Done:  E(UB3LYP) =  -266.838220665     A.U. after   27 cycles
 SCF Done:  E(UB3LYP) =  -266.875196185     A.U. after   26 cycles
 SCF Done:  E(UB3LYP) =  -266.912466640     A.U. after   20 cycles
 SCF Done:  E(UB3LYP) =  -266.923898726     A.U. after   18 cycles
 SCF Done:  E(UB3LYP) =  -266.929226625     A.U. after   17 cycles
 SCF Done:  E(UB3LYP) =  -266.930527561     A.U. after   17 cycles
 SCF Done:  E(UB3LYP) =  -266.931694108     A.U. after   18 cycles
 SCF Done:  E(UB3LYP) =  -266.933514308     A.U. after   18 cycles
 SCF Done:  E(UB3LYP) =  -266.936106350     A.U. after   18 cycles
 SCF Done:  E(UB3LYP) =  -266.937377115     A.U. after   17 cycles
 SCF Done:  E(UB3LYP) =  -266.938342543     A.U. after   13 cycles
 SCF Done:  E(UB3LYP) =  -266.938366397     A.U. after   13 cycles
 SCF Done:  E(UB3LYP) =  -266.938367827     A.U. after   14 cycles
 SCF Done:  E(UB3LYP) =  -266.938371160     A.U. after   14 cycles
 SCF Done:  E(UB3LYP) =  -266.938373953     A.U. after   20 cycles
 SCF Done:  E(UB3LYP) =  -266.938374272     A.U. after   11 cycles
 SCF Done:  E(UB3LYP) =  -266.938374410     A.U. after   11 cycles
 SCF Done:  E(UB3LYP) =  -266.938374576     A.U. after   20 cycles
 SCF Done:  E(UB3LYP) =  -266.938374664     A.U. after   10 cycles
 Optimization completed.
    -- Stationary point found.
 Normal termination of Gaussian 09 at Sat Feb 19 19:56:29 2005.

 ----------------------------------------------------------------------
 #P Geom=AllCheck Guess=TCheck SCRF=Check GenChk UB3LYP/Aug-CC-pVDZ Fre
 q
 ----------------------------------------------------------------------

 1,2-(CH3)2-C2H5-N2+-UB3LYP-aug-cc-pVDZ-Triplet
 ----------------------------------------------
 Redundant internal coordinates taken from checkpoint file:
 /home/ubuntu/g09/Gau-28268.chk
 Charge =  1 Multiplicity = 3

                         Standard orientation:
 ---------------------------------------------------------------------
 Center     Atomic      Atomic             Coordinates (Angstroms)
 Number     Number       Type             X           Y           Z
 ---------------------------------------------------------------------
      1          6           0       -0.139777    0.000595    0.182245
      2          7           0        1.009770   -0.000434   -0.721557
      3          7           0        2.121983   -0.000513   -0.303834
      4          6           0       -0.380392   -1.304133    0.878526
      5          1           0        0.415628   -1.373319    1.647915
      6          1           0       -1.349343   -1.326273    1.388408
      7          1           0       -0.262277   -2.170999    0.219010
      8          6           0       -1.520713   -0.003982   -1.165153
      9          1           0       -2.408596   -0.003590   -0.531605
     10          1           0       -1.287150    0.920712   -1.694222
     11          1           0       -1.285184   -0.930458   -1.690171
     12          6           0       -0.382603    1.308319    0.872156
     13          1           0       -1.352036    1.331633    1.381018
     14          1           0        0.412511    1.381923    1.642075
     15          1           0       -0.264914    2.172207    0.208668
 ---------------------------------------------------------------------

 SCF Done:  E(UB3LYP) =  -266.938374664     A.U. after    1 cycles

 The electronic state is 3-A.
 Alpha  occ. eigenvalues --  -14.62465 -14.60991 -10.52081 -10.46401 -10.40383
 Alpha  occ. eigenvalues --  -10.40381  -1.28351  -1.06652  -0.93192  -0.92824
 Alpha  occ. eigenvalues --   -0.89828  -0.73638  -0.70098  -0.68490  -0.66454
 Alpha  occ. eigenvalues --   -0.65581  -0.65196  -0.61350  -0.60919  -0.60237
 Alpha  occ. eigenvalues --   -0.59418  -0.58547  -0.52262  -0.41460
 Alpha virt. eigenvalues --   -0.24964  -0.21866  -0.16063  -0.12252  -0.12179
 Alpha virt. eigenvalues --   -0.12051  -0.10102  -0.09684  -0.08521  -0.08077
 Alpha virt. eigenvalues --   -0.07654  -0.07367  -0.05221  -0.05087  -0.04905

  Beta  occ. eigenvalues --  -14.62004 -14.59250 -10.51284 -10.45646 -10.40328
  Beta  occ. eigenvalues --  -10.40326  -1.26119  -1.04472  -0.92366  -0.90929
  Beta  occ. eigenvalues --   -0.87614  -0.71894  -0.67776  -0.66822  -0.64680
  Beta  occ. eigenvalues --   -0.64601  -0.63692  -0.59718  -0.59225  -0.59076
  Beta  occ. eigenvalues --   -0.57693  -0.57292
  Beta virt. eigenvalues --   -0.41586  -0.26362  -0.23400  -0.17943  -0.15538
  Beta virt. eigenvalues --   -0.12120  -0.12017  -0.11809  -0.09976  -0.09359
  Beta virt. eigenvalues --   -0.08236  -0.08025  -0.07434  -0.06877  -0.05046

 Mulliken atomic charges:
              1
     1  C   -1.929294
     2  N    0.285888
     3  N   -0.432648
     4  C    1.494801
     5  H   -0.068581
     6  H   -0.137160
     7  H   -0.163094
     8  C    1.129542
     9  H   -0.099368
    10  H   -0.102621
    11  H   -0.102996
    12  C    1.494053
    13  H   -0.137110
    14  H   -0.068304
    15  H   -0.163107
 Sum of Mulliken atomic charges =   1.00000

 Dipole moment (field-independent basis, Debye):
    X=             -4.0917    Y=             -0.0014    Z=              0.4878  Tot=              4.1207
 Quadrupole moment (field-independent basis, Debye-Ang):
   XX=            -30.4576   YY=            -28.0328   ZZ=            -28.6881
   XY=              0.0061   XZ=              2.9638   YZ=              0.0034

  Exact polarizability:  75.797   0.002  59.993   2.697   0.009  63.293
 Approx polarizability: 117.800   0.000  83.282   6.444   0.022  93.065

                     1                      2                      3
                     A                      A                      A
 Frequencies --    47.2718               145.4639               203.0466
 Red. masses --     7.2567                 1.0295                 4.0900
 Frc consts  --     0.0096                 0.0128                 0.0994
 IR Inten    --     0.0002                 0.0451                 1.0907

                     4                      5                      6
                     A                      A                      A
 Frequencies --   227.3068               236.6713               246.6076
 Red. masses --     1.0652                 1.0782                 2.8918
 Frc consts  --     0.0324                 0.0356                 0.1036
 IR Inten    --     0.0586                 1.7669                 4.9793

                     7                      8                      9
                     A                      A                      A
 Frequencies --   303.6780               316.0274               385.8637
 Red. masses --     5.0488                 3.5631                 2.3997
 Frc consts  --     0.2743                 0.2097                 0.2105
 IR Inten    --     7.6092                 6.8392                 0.2671

                    10                     11                     12
                     A                      A                      A
 Frequencies --   397.4593               596.8659               690.6576
 Red. masses --     3.9633                 2.9760                 2.4028
 Frc consts  --     0.3689                 0.6247                 0.6753
 IR Inten    --     3.8373                 3.2812                22.7940

                    13                     14                     15
                     A                      A                      A
 Frequencies --   705.1591               726.7195               861.5242
 Red. masses --     1.0528                 1.5197                 1.2261
 Frc consts  --     0.3084                 0.4729                 0.5362
 IR Inten    --     8.8064                 0.9220                10.8922

                    16                     17                     18
                     A                      A                      A
 Frequencies --   866.5321               971.5853              1078.3102
 Red. masses --     2.6712                 1.3770                 1.7179
 Frc consts  --     1.1817                 0.7658                 1.1769
 IR Inten    --    12.1111                 0.4253                40.8717

                    19                     20                     21
                     A                      A                      A
 Frequencies --  1182.1735              1183.2875              1224.0352
 Red. masses --     4.6455                 2.0360                 1.1672
 Frc consts  --     3.8251                 1.6796                 1.0304
 IR Inten    --    38.6145                36.1227                 8.4969

                    22                     23                     24
                     A                      A                      A
 Frequencies --  1339.8724              1363.0537              1375.9553
 Red. masses --     1.1278                 1.1551                 1.0514
 Frc consts  --     1.1929                 1.2644                 1.1728
 IR Inten    --    37.0336                24.0402                 4.2823

                    25                     26                     27
                     A                      A                      A
 Frequencies --  1396.2786              1400.2613              1409.2859
 Red. masses --     1.0968                 1.0651                 1.0763
 Frc consts  --     1.2598                 1.2305                 1.2594
 IR Inten    --     6.3986                 0.0625                14.0754

                    28                     29                     30
                     A                      A                      A
 Frequencies --  1442.2601              1467.0861              1806.3606
 Red. masses --     1.1026                 1.0791                13.6873
 Frc consts  --     1.3513                 1.3684                26.3134
 IR Inten    --     4.6025                12.5098                75.9449

                    31                     32                     33
                     A                      A                      A
 Frequencies --  2954.1250              2973.6053              3079.0537
 Red. masses --     1.0552                 1.0570                 1.0149
 Frc consts  --     5.4253                 5.5068                 5.6690
 IR Inten    --    72.5362                58.2905                13.1036

                    34                     35                     36
                     A                      A                      A
 Frequencies --  3100.3072              3103.4679              3161.9370
 Red. masses --     1.0705                 1.0730                 1.1068
 Frc consts  --     6.0627                 6.0892                 6.5199
 IR Inten    --     0.0415                 5.8246                 0.6912

                    37                     38                     39
                     A                      A                      A
 Frequencies --  3164.6684              3258.4802              3259.2182
 Red. masses --     1.1077                 1.1170                 1.1165
 Frc consts  --     6.5362                 6.9880                 6.9878
 IR Inten    --     0.3823                 3.8072                 4.0591

 - Thermochemistry -
 -------------------
 Temperature   298.150 Kelvin.  Pressure   1.00000 Atm.
 Atom     1 has atomic number  6 and mass  12.00000

 Molecular mass:    85.07657 amu.
 Principal axes and moments of inertia in atomic units:
                           1         2         3
     Eigenvalues --   423.12449 644.84636 647.16065
           X            0.99893   0.00029   0.04630
           Y           -0.00003   0.99998  -0.00568
           Z           -0.04630   0.00567   0.99891
 This molecule is an asymmetric top.
 Rotational symmetry number  1.
 Rotational temperatures (Kelvin)      0.20470     0.13432     0.13384
 Rotational constants (GHZ):           4.26527     2.79872     2.78871
 Zero-point vibrational energy     320907.4 (Joules/Mol)
                                   76.69870 (Kcal/Mol)
 Warning -- explicit consideration of  11 degrees of freedom as
           vibrations may cause significant error
 Vibrational temperatures:     68.01   209.29   292.14   327.04   340.52
          (Kelvin)            354.81   436.92   454.69   555.17   571.85
                              858.76   993.70  1014.57  1045.59  1239.54
                             1246.74  1397.89  1551.45  1700.88  1702.48
                             1761.11  1927.78  1961.13  1979.69  2008.93
                             2014.66  2027.65  2075.09  2110.81  2598.95
                             4250.32  4278.35  4430.07  4460.64  4465.19
                             4549.32  4553.25  4688.22  4689.28

 Zero-point correction=                           0.122227 (Hartree/Particle)
 Thermal correction to Energy=                    0.130871
 Thermal correction to Enthalpy=                  0.131815
 Thermal correction to Gibbs Free Energy=         0.088971
 Sum of electronic and zero-point Energies=           -266.816148
 Sum of electronic and thermal Energies=              -266.807504
 Sum of electronic and thermal Enthalpies=            -266.806560
 Sum of electronic and thermal Free Energies=         -266.849403

                     E (Thermal)             CV                S
                      KCal/Mol        Cal/Mol-Kelvin    Cal/Mol-Kelvin
 Total                   82.123             30.120             90.172
 Electronic               0.000              0.000              2.183
 Translational            0.889              2.981             39.236
 Rotational               0.889              2.981             26.671
 Vibrational             80.345             24.158             22.081
 Vibration     1          0.595              1.979              4.928
 Vibration     2          0.617              1.908              2.731
 Vibration     3          0.639              1.836              2.105
 Vibration     4          0.651              1.799              1.900
 Vibration     5          0.656              1.785              1.828
 Vibration     6          0.661              1.768              1.755
 Vibration     7          0.695              1.667              1.397
 Vibration     8          0.703              1.643              1.331
 Vibration     9          0.755              1.500              1.016
 Vibration    10          0.764              1.476              0.972
 Vibration    11          0.955              1.038              0.455

 Normal termination of Gaussian 09 at Sat Feb 19 20:04:39 2005.
