 Gaussian 09, Revision B.01,
 Gaussian 09:  EM64L-G09RevB.01 12-Aug-2010

 -------------------------------------------------
 #p Temperature=298.15 opt freq UB3LYP/aug-cc-pVDZ
 -------------------------------------------------

 -------------------------------------------
 1,2-(CH3)2-C2H5+-UB3LYP-aug-cc-pVDZ-Singlet
 -------------------------------------------
 Symbolic Z-matrix:
 Charge =  1 Multiplicity = 1

 SCF Done:  E(UB3LYP) =  -157.524623207     A.U. after   12 cycles
 SCF Done:  E(UB3LYP) =  -157.553069956     A.U. after   12 cycles
 SCF Done:  E(UB3LYP) =  -157.561799414     A.U. after   12 cycles
 SCF Done:  E(UB3LYP) =  -157.562388031     A.U. after   12 cycles
 SCF Done:  E(UB3LYP) =  -157.562487046     A.U. after   11 cycles
 SCF Done:  E(UB3LYP) =  -157.562675868     A.U. after   10 cycles
 SCF Done:  E(UB3LYP) =  -157.561717480     A.U. after   12 cycles
 SCF Done:  E(UB3LYP) =  -157.562777445     A.U. after   12 cycles
 SCF Done:  E(UB3LYP) =  -157.563666379     A.U. after   12 cycles
 SCF Done:  E(UB3LYP) =  -157.564318180     A.U. after   12 cycles
 SCF Done:  E(UB3LYP) =  -157.564929510     A.U. after   10 cycles
 SCF Done:  E(UB3LYP) =  -157.564921746     A.U. after   10 cycles
 SCF Done:  E(UB3LYP) =  -157.564909382     A.U. after   10 cycles
 SCF Done:  E(UB3LYP) =  -157.564917538     A.U. after   10 cycles
 SCF Done:  E(UB3LYP) =  -157.564917382     A.U. after    8 cycles
 SCF Done:  E(UB3LYP) =  -157.564917534     A.U. after    7 cycles
 SCF Done:  E(UB3LYP) =  -157.564916287     A.U. after    8 cycles
 SCF Done:  E(UB3LYP) =  -157.564916158     A.U. after    7 cycles
 SCF Done:  E(UB3LYP) =  -157.564916726     A.U. after    8 cycles
 Optimization completed on the basis of negligible forces.
    -- Stationary point found.
 Normal termination of Gaussian 09 at Sat Feb 19 20:25:07 2005.

 ----------------------------------------------------------------------
 #P Geom=AllCheck Guess=TCheck SCRF=Check GenChk UB3LYP/Aug-CC-pVDZ Fre
 q
 ----------------------------------------------------------------------

 1,2-(CH3)2-C2H5+-UB3LYP-aug-cc-pVDZ-Singlet
 -------------------------------------------
 Redundant internal coordinates taken from checkpoint file:
 /home/ubuntu/g09/Gau-3782.chk
 Charge =  1 Multiplicity = 1

                         Standard orientation:
 ---------------------------------------------------------------------
 Center     Atomic      Atomic             Coordinates (Angstroms)
 Number     Number       Type             X           Y           Z
 ---------------------------------------------------------------------
      1          6           0        0.001862   -0.000147   -0.003703
      2          6           0       -0.454173    1.390083    0.013051
      3          1           0       -1.521981    1.515625    0.215494
      4          1           0        0.174770    2.011556    0.669511
      5          1           0       -0.236569    1.775761   -1.007821
      6          6           0        1.434235   -0.300863   -0.009013
      7          1           0        1.646512   -0.791224    0.965700
      8          1           0        1.665206   -1.083752   -0.749834
      9          1           0        2.080704    0.574613   -0.118256
     10          6           0       -0.977593   -1.088920   -0.006940
     11          1           0       -1.523181   -1.032290    0.957349
     12          1           0       -1.762730   -0.884964   -0.756284
     13          1           0       -0.548717   -2.086244   -0.136223
 ---------------------------------------------------------------------

 SCF Done:  E(UB3LYP) =  -157.564916726     A.U. after    1 cycles

 The electronic state is 1-A.
 Alpha  occ. eigenvalues --  -10.51418 -10.40434 -10.40399 -10.40372  -1.06799
 Alpha  occ. eigenvalues --   -0.93131  -0.93068  -0.76072  -0.68029  -0.68004
 Alpha  occ. eigenvalues --   -0.67466  -0.60594  -0.60491  -0.59331  -0.58673
 Alpha  occ. eigenvalues --   -0.58632
 Alpha virt. eigenvalues --   -0.32156  -0.16833  -0.12264  -0.12223  -0.11411
 Alpha virt. eigenvalues --   -0.10787  -0.09921  -0.09711  -0.09302  -0.09038
 Alpha virt. eigenvalues --   -0.08409  -0.05015  -0.04754  -0.03905  -0.03839

  Beta  occ. eigenvalues --  -10.51418 -10.40434 -10.40399 -10.40372  -1.06799
  Beta  occ. eigenvalues --   -0.93131  -0.93068  -0.76072  -0.68029  -0.68004
  Beta  occ. eigenvalues --   -0.67466  -0.60594  -0.60491  -0.59331  -0.58673
  Beta  occ. eigenvalues --   -0.58632
  Beta virt. eigenvalues --   -0.32156  -0.16833  -0.12264  -0.12223  -0.11411
  Beta virt. eigenvalues --   -0.10787  -0.09921  -0.09711  -0.09302  -0.09038
  Beta virt. eigenvalues --   -0.08409  -0.05015  -0.04754  -0.03905  -0.03839

 Mulliken atomic charges:
              1
     1  C   -0.338030
     2  C    0.840752
     3  H   -0.330319
     4  H   -0.109525
     5  H    0.044095
     6  C    0.814125
     7  H    0.030094
     8  H   -0.072475
     9  H   -0.340914
    10  C    0.837665
    11  H    0.023349
    12  H   -0.062155
    13  H   -0.336660
 Sum of Mulliken atomic charges =   1.00000

 Dipole moment (field-independent basis, Debye):
    X=             -0.0246    Y=              0.0089    Z=              0.0378  Tot=              0.0460
 Quadrupole moment (field-independent basis, Debye-Ang):
   XX=            -17.2752   YY=            -17.4107   ZZ=            -22.7752
   XY=             -0.0488   XZ=              0.1528   YZ=             -0.3982

  Exact polarizability:  52.260  -0.104  51.998   0.278  -0.787  37.417
 Approx polarizability:  71.002  -0.261  70.447   0.720  -2.096  56.927

                     1                      2                      3
                     A                      A                      A
 Frequencies --    35.2791                50.9120               176.8537
 Red. masses --     1.0630                 1.0657                 1.0367
 Frc consts  --     0.0008                 0.0016                 0.0191
 IR Inten    --     0.8480                 1.3509                10.8637

                     4                      5                      6
                     A                      A                      A
 Frequencies --   408.0968               412.8288               451.4018
 Red. masses --     1.9944                 2.1019                 1.5926
 Frc consts  --     0.1957                 0.2111                 0.1912
 IR Inten    --     0.5517                 0.0774                 1.4846

                     7                      8                      9
                     A                      A                      A
 Frequencies --   751.7062               772.4107               821.2148
 Red. masses --     1.3217                 1.2598                 2.4309
 Frc consts  --     0.4400                 0.4428                 0.9659
 IR Inten    --     3.5303                 5.3567                 1.4250

                    10                     11                     12
                     A                      A                      A
 Frequencies --   974.3874               986.3969               988.4119
 Red. masses --     1.5695                 1.5721                 1.3707
 Frc consts  --     0.8780                 0.9012                 0.7890
 IR Inten    --    20.8242                20.5143                 6.6902

                    13                     14                     15
                     A                      A                      A
 Frequencies --  1098.7110              1272.9484              1276.7453
 Red. masses --     2.2226                 1.3324                 1.2998
 Frc consts  --     1.5808                 1.2721                 1.2483
 IR Inten    --    28.0573               121.0923                95.6066

                    16                     17                     18
                     A                      A                      A
 Frequencies --  1309.2489              1337.5077              1343.2067
 Red. masses --     1.1347                 1.4555                 1.5133
 Frc consts  --     1.1460                 1.5341                 1.6086
 IR Inten    --     0.6463                65.7500                65.4989

                    19                     20                     21
                     A                      A                      A
 Frequencies --  1389.6157              1400.9851              1424.8267
 Red. masses --     1.0723                 1.0698                 1.1717
 Frc consts  --     1.2200                 1.2372                 1.4015
 IR Inten    --     0.9442                 0.2557                38.9181

                    22                     23                     24
                     A                      A                      A
 Frequencies --  1474.5218              1483.6457              1488.6422
 Red. masses --     1.1321                 1.5365                 1.4700
 Frc consts  --     1.4502                 1.9927                 1.9194
 IR Inten    --     1.0579                25.9604                25.7642

                    25                     26                     27
                     A                      A                      A
 Frequencies --  2956.1943              2966.8910              2984.8107
 Red. masses --     1.0575                 1.0563                 1.0547
 Frc consts  --     5.4448                 5.4785                 5.5363
 IR Inten    --    88.3420                63.5551                31.6234

                    28                     29                     30
                     A                      A                      A
 Frequencies --  3039.3170              3052.6136              3060.9493
 Red. masses --     1.0810                 1.0744                 1.0714
 Frc consts  --     5.8831                 5.8985                 5.9144
 IR Inten    --    14.2023                13.8037                 9.3333

                    31                     32                     33
                     A                      A                      A
 Frequencies --  3166.9715              3167.2397              3170.9206
 Red. masses --     1.1045                 1.1035                 1.1022
 Frc consts  --     6.5271                 6.5219                 6.5294
 IR Inten    --     1.2428                 4.7661                 4.8358

 - Thermochemistry -
 -------------------
 Temperature   298.150 Kelvin.  Pressure   1.00000 Atm.
 Atom     1 has atomic number  6 and mass  12.00000

 Molecular mass:    57.07043 amu.
 Principal axes and moments of inertia in atomic units:
                           1         2         3
     Eigenvalues --   217.96449 218.82824 404.19078
           X            0.99919  -0.04024   0.00138
           Y            0.04024   0.99918  -0.00326
           Z           -0.00125   0.00331   0.99999
 This molecule is an asymmetric top.
 Rotational symmetry number  1.
 Rotational temperatures (Kelvin)      0.39738     0.39581     0.21429
 Rotational constants (GHZ):           8.27998     8.24730     4.46507
 Zero-point vibrational energy     303231.9 (Joules/Mol)
                                   72.47416 (Kcal/Mol)
 Warning -- explicit consideration of   6 degrees of freedom as
           vibrations may cause significant error
 Vibrational temperatures:     50.76    73.25   254.45   587.16   593.97
          (Kelvin)            649.47  1081.54  1111.33  1181.54  1401.92
                             1419.20  1422.10  1580.80  1831.49  1836.95
                             1883.71  1924.37  1932.57  1999.34  2015.70
                             2050.01  2121.51  2134.63  2141.82  4253.30
                             4268.69  4294.47  4372.89  4392.02  4404.02
                             4556.56  4556.95  4562.24

 Zero-point correction=                           0.115495 (Hartree/Particle)
 Thermal correction to Energy=                    0.121974
 Thermal correction to Enthalpy=                  0.122918
 Thermal correction to Gibbs Free Energy=         0.085350
 Sum of electronic and zero-point Energies=           -157.449422
 Sum of electronic and thermal Energies=              -157.442943
 Sum of electronic and thermal Enthalpies=            -157.441999
 Sum of electronic and thermal Free Energies=         -157.479566

                     E (Thermal)             CV                S
                      KCal/Mol        Cal/Mol-Kelvin    Cal/Mol-Kelvin
 Total                   76.540             20.839             79.068
 Electronic               0.000              0.000              0.000
 Translational            0.889              2.981             38.046
 Rotational               0.889              2.981             24.470
 Vibrational             74.762             14.877             16.552
 Vibration     1          0.594              1.982              5.508
 Vibration     2          0.595              1.977              4.782
 Vibration     3          0.628              1.871              2.361
 Vibration     4          0.773              1.453              0.933
 Vibration     5          0.777              1.442              0.917
 Vibration     6          0.810              1.358              0.792

 Optimization completed on the basis of negligible forces.
    -- Stationary point found.
 Normal termination of Gaussian 09 at Sat Feb 19 20:27:52 2005.
