 Gaussian 09, Revision B.01,
 Gaussian 09:  EM64L-G09RevB.01 12-Aug-2010

 -------------------------------------------------
 #p Temperature=298.15 opt freq UB3LYP/aug-cc-pVDZ
 -------------------------------------------------

 -----------------------------------------
 1,2-(CH3)2-C2H5-UB3LYP-aug-cc-pVDZ-Duplet
 -----------------------------------------
 Symbolic Z-matrix:
 Charge =  0 Multiplicity = 2

 SCF Done:  E(UB3LYP) =  -157.790764983     A.U. after   11 cycles
 SCF Done:  E(UB3LYP) =  -157.807119995     A.U. after   13 cycles
 SCF Done:  E(UB3LYP) =  -157.811871968     A.U. after   13 cycles
 SCF Done:  E(UB3LYP) =  -157.812469758     A.U. after   12 cycles
 SCF Done:  E(UB3LYP) =  -157.812484942     A.U. after   13 cycles
 SCF Done:  E(UB3LYP) =  -157.812496810     A.U. after   10 cycles
 SCF Done:  E(UB3LYP) =  -157.812497890     A.U. after   11 cycles
 SCF Done:  E(UB3LYP) =  -157.812495724     A.U. after   11 cycles
 SCF Done:  E(UB3LYP) =  -157.812487655     A.U. after   10 cycles
 SCF Done:  E(UB3LYP) =  -157.812492679     A.U. after    8 cycles
 SCF Done:  E(UB3LYP) =  -157.812501661     A.U. after   11 cycles
 SCF Done:  E(UB3LYP) =  -157.812487131     A.U. after   11 cycles
 SCF Done:  E(UB3LYP) =  -157.812502857     A.U. after   11 cycles
 Optimization completed.
    -- Stationary point found.
 Normal termination of Gaussian 09 at Sat Feb 19 06:19:07 2005.

 ----------------------------------------------------------------------
 #P Geom=AllCheck Guess=TCheck SCRF=Check GenChk UB3LYP/Aug-CC-pVDZ Fre
 q
 ----------------------------------------------------------------------

 1,2-(CH3)2-C2H5-UB3LYP-aug-cc-pVDZ-Duplet
 -----------------------------------------
 Redundant internal coordinates taken from checkpoint file:
 /home/ubuntu/g09/Gau-32662.chk
 Charge =  0 Multiplicity = 2

                         Standard orientation:
 ---------------------------------------------------------------------
 Center     Atomic      Atomic             Coordinates (Angstroms)
 Number     Number       Type             X           Y           Z
 ---------------------------------------------------------------------
      1          6           0       -0.000082    0.000053   -0.158605
      2          6           0        0.045152    1.485426    0.015459
      3          1           0       -0.831916    1.975865   -0.432546
      4          1           0        0.053460    1.773029    1.088605
      5          1           0        0.951090    1.921048   -0.431627
      6          6           0        1.264009   -0.781832    0.015454
      7          1           0        1.510196   -0.931021    1.088592
      8          1           0        1.187899   -1.784863   -0.429972
      9          1           0        2.126907   -0.268336   -0.434204
     10          6           0       -1.309140   -0.703646    0.015470
     11          1           0       -1.563921   -0.837507    1.088614
     12          1           0       -2.139187   -0.138672   -0.434297
     13          1           0       -1.294159   -1.709550   -0.429835
 ---------------------------------------------------------------------

 SCF Done:  E(UB3LYP) =  -157.812502857     A.U. after    1 cycles

 The electronic state is 2-A.
 Alpha  occ. eigenvalues --  -10.19123 -10.17838 -10.17838 -10.17834  -0.80502
 Alpha  occ. eigenvalues --   -0.69198  -0.69197  -0.53750  -0.44551  -0.44094
 Alpha  occ. eigenvalues --   -0.44092  -0.38679  -0.38675  -0.36815  -0.34648
 Alpha  occ. eigenvalues --   -0.34644  -0.17540
 Alpha virt. eigenvalues --   -0.01236   0.01124   0.01125   0.02020   0.03462
 Alpha virt. eigenvalues --    0.03462   0.04513   0.04519   0.05388   0.06994
 Alpha virt. eigenvalues --    0.08954   0.09577   0.09585   0.10916   0.11005

  Beta  occ. eigenvalues --  -10.17924 -10.17923 -10.17922 -10.17755  -0.78818
  Beta  occ. eigenvalues --   -0.68970  -0.68969  -0.51897  -0.43711  -0.43710
  Beta  occ. eigenvalues --   -0.42616  -0.38079  -0.38076  -0.36711  -0.34164
  Beta  occ. eigenvalues --   -0.34159
  Beta virt. eigenvalues --   -0.04224  -0.01109   0.01117   0.01118   0.02196
  Beta virt. eigenvalues --    0.03458   0.03459   0.04515   0.04521   0.05539
  Beta virt. eigenvalues --    0.06953   0.09140   0.09623   0.09631   0.11000

 Mulliken atomic charges:
              1
     1  C   -0.254191
     2  C    0.836317
     3  H   -0.298348
     4  H   -0.153544
     5  H   -0.298779
     6  C    0.835318
     7  H   -0.153748
     8  H   -0.299435
     9  H   -0.298136
    10  C    0.835586
    11  H   -0.153630
    12  H   -0.298005
    13  H   -0.299404
 Sum of Mulliken atomic charges =   0.00000

 Dipole moment (field-independent basis, Debye):
    X=              0.0001    Y=             -0.0001    Z=              0.1926  Tot=              0.1926
 Quadrupole moment (field-independent basis, Debye-Ang):
   XX=            -28.0605   YY=            -28.0603   ZZ=            -28.7904
   XY=              0.0000   XZ=              0.0002   YZ=             -0.0005

  Exact polarizability:  59.123  -0.005  59.083   0.014   0.011  49.232
 Approx polarizability:  74.651  -0.003  74.620   0.000   0.004  69.895

                     1                      2                      3
                     A                      A                      A
 Frequencies --   124.7738               131.8999               133.3500
 Red. masses --     1.0116                 1.0696                 1.0718
 Frc consts  --     0.0093                 0.0110                 0.0112
 IR Inten    --     0.0015                 0.0247                 0.0273

                     4                      5                      6
                     A                      A                      A
 Frequencies --   265.1583               383.6623               384.3015
 Red. masses --     2.2628                 2.0776                 2.0735
 Frc consts  --     0.0937                 0.1802                 0.1804
 IR Inten    --     2.8060                 0.1498                 0.1520

                     7                      8                      9
                     A                      A                      A
 Frequencies --   764.1879               914.4672               915.2800
 Red. masses --     3.5409                 1.2401                 1.2406
 Frc consts  --     1.2183                 0.6110                 0.6123
 IR Inten    --     1.9898                 0.6225                 0.6243

                    10                     11                     12
                     A                      A                      A
 Frequencies --   958.5610              1002.9411              1003.7121
 Red. masses --     1.2191                 1.6154                 1.6162
 Frc consts  --     0.6600                 0.9574                 0.9593
 IR Inten    --     0.0001                 1.9222                 1.9082

                    13                     14                     15
                     A                      A                      A
 Frequencies --  1073.0976              1289.4678              1290.1141
 Red. masses --     1.6411                 2.6396                 2.6359
 Frc consts  --     1.1134                 2.5859                 2.5848
 IR Inten    --     1.0241                 4.6869                 4.6686

                    16                     17                     18
                     A                      A                      A
 Frequencies --  1375.1969              1375.4743              1399.3633
 Red. masses --     1.3221                 1.3259                 1.2042
 Frc consts  --     1.4731                 1.4779                 1.3893
 IR Inten    --     4.7642                 4.8004                 3.3882

                    19                     20                     21
                     A                      A                      A
 Frequencies --  1437.5544              1442.5501              1442.9618
 Red. masses --     1.0421                 1.0685                 1.0683
 Frc consts  --     1.2688                 1.3101                 1.3106
 IR Inten    --     0.0095                 3.4459                 3.3641

                    22                     23                     24
                     A                      A                      A
 Frequencies --  1462.8918              1464.1669              1464.5553
 Red. masses --     1.0625                 1.0846                 1.0859
 Frc consts  --     1.3397                 1.3700                 1.3723
 IR Inten    --    17.0218                 2.8226                 2.2660

                    25                     26                     27
                     A                      A                      A
 Frequencies --  2917.1244              2917.4685              2926.5748
 Red. masses --     1.0612                 1.0612                 1.0641
 Frc consts  --     5.3205                 5.3217                 5.3696
 IR Inten    --    41.0616                40.8696               101.4962

                    28                     29                     30
                     A                      A                      A
 Frequencies --  3036.9754              3037.1415              3039.7829
 Red. masses --     1.0676                 1.0676                 1.0663
 Frc consts  --     5.8017                 5.8021                 5.8053
 IR Inten    --    21.7876                21.7649                40.9196

                    31                     32                     33
                     A                      A                      A
 Frequencies --  3084.3465              3088.2351              3088.5471
 Red. masses --     1.1030                 1.1018                 1.1018
 Frc consts  --     6.1823                 6.1913                 6.1924
 IR Inten    --     0.0593                47.6486                47.7939

 - Thermochemistry -
 -------------------
 Temperature   298.150 Kelvin.  Pressure   1.00000 Atm.
 Atom     1 has atomic number  6 and mass  12.00000

 Molecular mass:    57.07043 amu.
 Principal axes and moments of inertia in atomic units:
                           1         2         3
     Eigenvalues --   226.47584 226.52904 417.19003
           X            1.00000   0.00037   0.00000
           Y           -0.00037   1.00000   0.00000
           Z            0.00000   0.00000   1.00000
 This molecule is an asymmetric top.
 Rotational symmetry number  1.
 Rotational temperatures (Kelvin)      0.38244     0.38235     0.20761
 Rotational constants (GHZ):           7.96880     7.96693     4.32595
 Zero-point vibrational energy     302869.9 (Joules/Mol)
                                   72.38763 (Kcal/Mol)
 Warning -- explicit consideration of   6 degrees of freedom as
           vibrations may cause significant error
 Vibrational temperatures:    179.52   189.77   191.86   381.50   552.00
          (Kelvin)            552.92  1099.49  1315.71  1316.88  1379.15
                             1443.01  1444.12  1543.95  1855.25  1856.18
                             1978.60  1979.00  2013.37  2068.32  2075.51
                             2076.10  2104.77  2106.61  2107.17  4197.09
                             4197.58  4210.68  4369.52  4369.76  4373.56
                             4437.68  4443.28  4443.72

 Zero-point correction=                           0.115357 (Hartree/Particle)
 Thermal correction to Energy=                    0.121760
 Thermal correction to Enthalpy=                  0.122705
 Thermal correction to Gibbs Free Energy=         0.085844
 Sum of electronic and zero-point Energies=           -157.697146
 Sum of electronic and thermal Energies=              -157.690742
 Sum of electronic and thermal Enthalpies=            -157.689798
 Sum of electronic and thermal Free Energies=         -157.726659

                     E (Thermal)             CV                S
                      KCal/Mol        Cal/Mol-Kelvin    Cal/Mol-Kelvin
 Total                   76.406             20.799             77.580
 Electronic               0.000              0.000              1.377
 Translational            0.889              2.981             38.046
 Rotational               0.889              2.981             24.574
 Vibrational             74.628             14.838             13.583
 Vibration     1          0.610              1.928              3.025
 Vibration     2          0.612              1.921              2.918
 Vibration     3          0.613              1.920              2.897
 Vibration     4          0.671              1.737              1.628
 Vibration     5          0.753              1.505              1.025
 Vibration     6          0.753              1.504              1.022

 Normal termination of Gaussian 09 at Sat Feb 19 06:22:01 2005.
