 Gaussian 09, Revision B.01,
 Gaussian 09:  EM64L-G09RevB.01 12-Aug-2010

 -------------------------------------------------
 #p Temperature=298.15 opt freq UB3LYP/aug-cc-pVDZ
 -------------------------------------------------

 ----------------------------------------------
 1,2-(CH3)2-C2H5-N2+-UB3LYP-aug-cc-pVDZ-Singlet
 ----------------------------------------------
 Symbolic Z-matrix:
 Charge =  1 Multiplicity = 1

 SCF Done:  E(UB3LYP) =  -267.035644632     A.U. after   12 cycles
 SCF Done:  E(UB3LYP) =  -267.087604352     A.U. after   13 cycles
 SCF Done:  E(UB3LYP) =  -267.106879292     A.U. after   12 cycles
 SCF Done:  E(UB3LYP) =  -267.110005822     A.U. after   12 cycles
 SCF Done:  E(UB3LYP) =  -267.110455469     A.U. after   12 cycles
 SCF Done:  E(UB3LYP) =  -267.110546340     A.U. after   12 cycles
 SCF Done:  E(UB3LYP) =  -267.110575761     A.U. after   11 cycles
 SCF Done:  E(UB3LYP) =  -267.110594746     A.U. after   10 cycles
 SCF Done:  E(UB3LYP) =  -267.110600527     A.U. after   10 cycles
 SCF Done:  E(UB3LYP) =  -267.110602787     A.U. after    9 cycles
 SCF Done:  E(UB3LYP) =  -267.110709920     A.U. after    9 cycles
 SCF Done:  E(UB3LYP) =  -267.110709895     A.U. after    9 cycles
 SCF Done:  E(UB3LYP) =  -267.110709480     A.U. after    9 cycles
 SCF Done:  E(UB3LYP) =  -267.110709162     A.U. after    9 cycles
 SCF Done:  E(UB3LYP) =  -267.110708762     A.U. after    9 cycles
 SCF Done:  E(UB3LYP) =  -267.110708662     A.U. after    9 cycles
 SCF Done:  E(UB3LYP) =  -267.110708904     A.U. after    9 cycles
 SCF Done:  E(UB3LYP) =  -267.110709244     A.U. after    8 cycles
 SCF Done:  E(UB3LYP) =  -267.110709131     A.U. after    8 cycles
 Optimization completed.
    -- Stationary point found.
 Normal termination of Gaussian 09 at Sat Feb 19 19:13:44 2005.

 ----------------------------------------------------------------------
 #P Geom=AllCheck Guess=TCheck SCRF=Check GenChk UB3LYP/Aug-CC-pVDZ Fre
 q
 ----------------------------------------------------------------------

 1,2-(CH3)2-C2H5-N2+-UB3LYP-aug-cc-pVDZ-Singlet
 ----------------------------------------------
 Redundant internal coordinates taken from checkpoint file:
 /home/ubuntu/g09/Gau-17072.chk
 Charge =  1 Multiplicity = 1

                         Standard orientation:
 ---------------------------------------------------------------------
 Center     Atomic      Atomic             Coordinates (Angstroms)
 Number     Number       Type             X           Y           Z
 ---------------------------------------------------------------------
      1          6           0        1.204550    0.001538    0.007448
      2          7           0       -2.240644   -0.001163   -0.069133
      3          7           0       -3.341661   -0.003304    0.010744
      4          6           0        1.237059   -1.255294   -0.742013
      5          1           0        1.683435   -1.171798   -1.737895
      6          1           0        1.652415   -2.087032   -0.157877
      7          1           0        0.160467   -1.505375   -0.879570
      8          6           0        1.106865   -0.028514    1.466930
      9          1           0        2.171793   -0.008161    1.795611
     10          1           0        0.642244    0.869785    1.890767
     11          1           0        0.680141   -0.958683    1.859574
     12          6           0        1.225119    1.287346   -0.690882
     13          1           0        1.720800    1.254822   -1.666917
     14          1           0        0.147072    1.493238   -0.883043
     15          1           0        1.576207    2.114017   -0.060823
 ---------------------------------------------------------------------

 SCF Done:  E(UB3LYP) =  -267.110709131     A.U. after    1 cycles

 The electronic state is 1-A.
 Alpha  occ. eigenvalues --  -14.58088 -14.57703 -10.50915 -10.40014 -10.39887
 Alpha  occ. eigenvalues --  -10.39881  -1.26412  -1.06381  -0.92718  -0.92614
 Alpha  occ. eigenvalues --   -0.75551  -0.69789  -0.67498  -0.67483  -0.66983
 Alpha  occ. eigenvalues --   -0.60476  -0.60349  -0.59923  -0.59909  -0.58788
 Alpha  occ. eigenvalues --   -0.58173  -0.58054  -0.56860
 Alpha virt. eigenvalues --   -0.31408  -0.17181  -0.17057  -0.15938  -0.11817
 Alpha virt. eigenvalues --   -0.11790  -0.11232  -0.09861  -0.09626  -0.09499
 Alpha virt. eigenvalues --   -0.08375  -0.08348  -0.07489  -0.05973  -0.05039

  Beta  occ. eigenvalues --  -14.58088 -14.57703 -10.50915 -10.40014 -10.39887
  Beta  occ. eigenvalues --  -10.39881  -1.26412  -1.06381  -0.92718  -0.92614
  Beta  occ. eigenvalues --   -0.75551  -0.69789  -0.67498  -0.67483  -0.66983
  Beta  occ. eigenvalues --   -0.60476  -0.60349  -0.59923  -0.59909  -0.58788
  Beta  occ. eigenvalues --   -0.58173  -0.58054  -0.56860
  Beta virt. eigenvalues --   -0.31408  -0.17181  -0.17057  -0.15938  -0.11817
  Beta virt. eigenvalues --   -0.11790  -0.11232  -0.09861  -0.09626  -0.09499
  Beta virt. eigenvalues --   -0.08375  -0.08348  -0.07489  -0.05973  -0.05039

 Mulliken atomic charges:
              1
     1  C   -0.406088
     2  N    0.058439
     3  N   -0.047610
     4  C    0.881814
     5  H   -0.275755
     6  H   -0.219749
     7  H    0.034575
     8  C    0.982645
     9  H    0.013180
    10  H   -0.216241
    11  H   -0.228480
    12  C    0.886316
    13  H   -0.251289
    14  H    0.036362
    15  H   -0.248120
 Sum of Mulliken atomic charges =   1.00000

 Dipole moment (field-independent basis, Debye):
    X=              4.7763    Y=             -0.0027    Z=              0.1189  Tot=              4.7778
 Quadrupole moment (field-independent basis, Debye-Ang):
   XX=            -25.4897   YY=            -27.8305   ZZ=            -28.0223
   XY=             -0.0417   XZ=              0.6601   YZ=             -0.0101

  Exact polarizability:  57.088  -0.071  60.278   0.430  -0.021  59.980
 Approx polarizability:  86.261  -0.105  83.705   1.966  -0.053  82.941

                     1                      2                      3
                     A                      A                      A
 Frequencies --    24.1522                30.6025                40.8044
 Red. masses --     1.9982                 1.2511                 2.9387
 Frc consts  --     0.0007                 0.0007                 0.0029
 IR Inten    --     1.6432                 0.5611                 1.1870

                     4                      5                      6
                     A                      A                      A
 Frequencies --    58.9403                65.4929                74.9392
 Red. masses --     6.0973                12.2909                12.8950
 Frc consts  --     0.0125                 0.0311                 0.0427
 IR Inten    --     6.9737                 0.1567                 0.3197

                     7                      8                      9
                     A                      A                      A
 Frequencies --   167.1131               209.7119               406.8769
 Red. masses --     1.0596                 1.0279                 1.7646
 Frc consts  --     0.0174                 0.0266                 0.1721
 IR Inten    --     2.1938                 2.0007                 3.7870

                    10                     11                     12
                     A                      A                      A
 Frequencies --   416.3656               437.5223               686.8525
 Red. masses --     2.0810                 1.8396                 1.2432
 Frc consts  --     0.2126                 0.2075                 0.3456
 IR Inten    --     0.0818                 3.6409                14.0745

                    13                     14                     15
                     A                      A                      A
 Frequencies --   739.7667               841.8329               976.0834
 Red. masses --     1.4411                 2.3696                 1.8391
 Frc consts  --     0.4647                 0.9894                 1.0323
 IR Inten    --     3.9659                 3.5938                32.2530

                    16                     17                     18
                     A                      A                      A
 Frequencies --   984.5441              1017.7177              1095.4944
 Red. masses --     1.2437                 1.5562                 1.9983
 Frc consts  --     0.7103                 0.9497                 1.4130
 IR Inten    --     2.0495                 0.4959                37.5721

                    19                     20                     21
                     A                      A                      A
 Frequencies --  1290.4880              1300.7122              1308.6329
 Red. masses --     1.5992                 1.2905                 1.1662
 Frc consts  --     1.5692                 1.2864                 1.1767
 IR Inten    --    68.6571                10.2032                92.4432

                    22                     23                     24
                     A                      A                      A
 Frequencies --  1321.2211              1353.8746              1371.1812
 Red. masses --     1.1635                 1.3868                 1.0414
 Frc consts  --     1.1967                 1.4977                 1.1536
 IR Inten    --    11.4242               124.1247                 5.3075

                    25                     26                     27
                     A                      A                      A
 Frequencies --  1399.6494              1415.0995              1485.6590
 Red. masses --     1.1899                 1.3125                 1.2228
 Frc consts  --     1.3735                 1.5485                 1.5902
 IR Inten    --     0.4571                14.8522                 6.9807

                    28                     29                     30
                     A                      A                      A
 Frequencies --  1486.3192              1495.5944              2446.8319
 Red. masses --     1.5003                 1.2610                14.0029
 Frc consts  --     1.9528                 1.6619                49.3944
 IR Inten    --    25.5339                24.0173                 4.2333

                    31                     32                     33
                     A                      A                      A
 Frequencies --  2940.6172              2943.9196              2956.8961
 Red. masses --     1.0593                 1.0589                 1.0636
 Frc consts  --     5.3971                 5.4069                 5.4791
 IR Inten    --   101.6296                70.2411                17.8461

                    34                     35                     36
                     A                      A                      A
 Frequencies --  3082.8105              3086.4603              3088.1720
 Red. masses --     1.0666                 1.0648                 1.0668
 Frc consts  --     5.9722                 5.9762                 5.9944
 IR Inten    --     3.6463                 0.7133                 8.2585

                    37                     38                     39
                     A                      A                      A
 Frequencies --  3162.3613              3164.2853              3169.4944
 Red. masses --     1.1085                 1.1096                 1.1080
 Frc consts  --     6.5317                 6.5460                 6.5580
 IR Inten    --     2.8261                 0.0734                 0.9732

 - Thermochemistry -
 -------------------
 Temperature   298.150 Kelvin.  Pressure   1.00000 Atm.
 Atom     1 has atomic number  6 and mass  12.00000

 Molecular mass:    85.07657 amu.
 Principal axes and moments of inertia in atomic units:
                           1         2         3
     Eigenvalues --   403.148821309.424261312.59603
           X            1.00000  -0.00025  -0.00009
           Y            0.00025   1.00000  -0.00184
           Z            0.00009   0.00184   1.00000
 This molecule is an asymmetric top.
 Rotational symmetry number  1.
 Rotational temperatures (Kelvin)      0.21484     0.06615     0.06599
 Rotational constants (GHZ):           4.47661     1.37827     1.37494
 Zero-point vibrational energy     320270.8 (Joules/Mol)
                                   76.54655 (Kcal/Mol)
 Warning -- explicit consideration of  11 degrees of freedom as
           vibrations may cause significant error
 Vibrational temperatures:     34.75    44.03    58.71    84.80    94.23
          (Kelvin)            107.82   240.44   301.73   585.40   599.06
                              629.50   988.23  1064.36  1211.21  1404.36
                             1416.54  1464.27  1576.17  1856.72  1871.43
                             1882.83  1900.94  1947.92  1972.82  2013.78
                             2036.01  2137.53  2138.48  2151.82  3520.44
                             4230.89  4235.64  4254.31  4435.47  4440.72
                             4443.19  4549.93  4552.70  4560.19

 Zero-point correction=                           0.121985 (Hartree/Particle)
 Thermal correction to Energy=                    0.132385
 Thermal correction to Enthalpy=                  0.133329
 Thermal correction to Gibbs Free Energy=         0.083034
 Sum of electronic and zero-point Energies=           -266.988724
 Sum of electronic and thermal Energies=              -266.978324
 Sum of electronic and thermal Enthalpies=            -266.977380
 Sum of electronic and thermal Free Energies=         -267.027675

                     E (Thermal)             CV                S
                      KCal/Mol        Cal/Mol-Kelvin    Cal/Mol-Kelvin
 Total                   83.073             30.709            105.856
 Electronic               0.000              0.000              0.000
 Translational            0.889              2.981             39.236
 Rotational               0.889              2.981             28.029
 Vibrational             81.295             24.748             38.590
 Vibration     1          0.593              1.985              6.260
 Vibration     2          0.594              1.984              5.790
 Vibration     3          0.594              1.981              5.220
 Vibration     4          0.596              1.974              4.492
 Vibration     5          0.597              1.971              4.284
 Vibration     6          0.599              1.966              4.019
 Vibration     7          0.624              1.883              2.468
 Vibration     8          0.642              1.826              2.046
 Vibration     9          0.772              1.455              0.938
 Vibration    10          0.780              1.435              0.904
 Vibration    11          0.798              1.388              0.834

 Optimization completed on the basis of negligible forces.
    -- Stationary point found.
 Normal termination of Gaussian 09 at Sat Feb 19 19:20:50 2005.
