 Gaussian 09, Revision B.01,
 Gaussian 09:  EM64L-G09RevB.01 12-Aug-2010

 -------------------------------------------------
 #p Temperature=298.15 opt freq UB3LYP/aug-cc-pVDZ
 -------------------------------------------------

 ---------------------------------------------
 1,2,4-Triazine-3-N2-UB3LYP-aug-cc-pVDZ-Duplet
 ---------------------------------------------
 Symbolic Z-matrix:
 Charge =  0 Multiplicity = 2

 SCF Done:  E(UB3LYP) =  -388.890830944     A.U. after   31 cycles
 SCF Done:  E(UB3LYP) =  -388.995035632     A.U. after   22 cycles
 SCF Done:  E(UB3LYP) =  -389.123857371     A.U. after   23 cycles
 SCF Done:  E(UB3LYP) =  -389.168728979     A.U. after   20 cycles
 SCF Done:  E(UB3LYP) =  -389.193646904     A.U. after   22 cycles
 SCF Done:  E(UB3LYP) =  -389.196153879     A.U. after   23 cycles
 SCF Done:  E(UB3LYP) =  -389.197477678     A.U. after   23 cycles
 SCF Done:  E(UB3LYP) =  -389.196993715     A.U. after   21 cycles
 SCF Done:  E(UB3LYP) =  -389.199514665     A.U. after   18 cycles
 SCF Done:  E(UB3LYP) =  -389.201081969     A.U. after   18 cycles
 SCF Done:  E(UB3LYP) =  -389.207736109     A.U. after   17 cycles
 SCF Done:  E(UB3LYP) =  -389.207851252     A.U. after   17 cycles
 SCF Done:  E(UB3LYP) =  -389.207946829     A.U. after   17 cycles
 SCF Done:  E(UB3LYP) =  -389.208014642     A.U. after   17 cycles
 SCF Done:  E(UB3LYP) =  -389.208053285     A.U. after   17 cycles
 SCF Done:  E(UB3LYP) =  -389.208082214     A.U. after   16 cycles
 SCF Done:  E(UB3LYP) =  -389.208092785     A.U. after   14 cycles
 SCF Done:  E(UB3LYP) =  -389.208094544     A.U. after   15 cycles
 SCF Done:  E(UB3LYP) =  -389.208094793     A.U. after   12 cycles
 Optimization completed.
    -- Stationary point found.
 Normal termination of Gaussian 09 at Mon Mar 19 21:36:48 2018.

 ----------------------------------------------------------------------
 #P Geom=AllCheck Guess=TCheck SCRF=Check GenChk UB3LYP/Aug-CC-pVDZ Fre
 q
 ----------------------------------------------------------------------

 1,2,4-Triazine-3-N2-UB3LYP-aug-cc-pVDZ-Duplet
 ---------------------------------------------
 Redundant internal coordinates taken from checkpoint file:
 1.chk,2,4-Triazine-3-N2-UB3LYP-aug-cc-pVDZ-Duplet.chk
 Charge =  0 Multiplicity = 2

                         Standard orientation:
 ---------------------------------------------------------------------
 Center     Atomic      Atomic             Coordinates (Angstroms)
 Number     Number       Type             X           Y           Z
 ---------------------------------------------------------------------
      1          6           0       -0.510378    0.152537   -0.092767
      2          7           0       -1.946163    0.354400   -0.272561
      3          7           0       -2.776616   -0.237826    0.323344
      4          6           0        2.032857   -0.247566    0.077230
      5          1           0        3.100966   -0.453583    0.146469
      6          6           0        1.520883    1.057877    0.078661
      7          1           0        2.171647    1.931577    0.156067
      8          7           0        0.213202    1.269347   -0.030103
      9          7           0       -0.084105   -1.112093   -0.097374
     10          7           0        1.231855   -1.310269   -0.020632
 ---------------------------------------------------------------------

 SCF Done:  E(UB3LYP) =  -389.208094793     A.U. after    1 cycles

 The electronic state is 2-A.
 Alpha  occ. eigenvalues --  -14.44130 -14.42680 -14.42107 -14.41267 -14.40024
 Alpha  occ. eigenvalues --  -10.33770 -10.29145 -10.27492  -1.11044  -1.07675
 Alpha  occ. eigenvalues --   -0.98589  -0.88664  -0.76615  -0.74044  -0.65269
 Alpha  occ. eigenvalues --   -0.59357  -0.54424  -0.51539  -0.49435  -0.48553
 Alpha  occ. eigenvalues --   -0.44627  -0.43623  -0.38588  -0.37600  -0.36388
 Alpha  occ. eigenvalues --   -0.33869  -0.27957  -0.22983
 Alpha virt. eigenvalues --   -0.11280  -0.10036  -0.04448  -0.02005   0.00952
 Alpha virt. eigenvalues --    0.01747   0.03274   0.04605   0.05268   0.05777
 Alpha virt. eigenvalues --    0.06247   0.06805   0.07717   0.08687   0.08756

  Beta  occ. eigenvalues --  -14.43805 -14.42075 -14.41263 -14.41115 -14.40044
  Beta  occ. eigenvalues --  -10.33371 -10.29128 -10.27502  -1.10007  -1.06824
  Beta  occ. eigenvalues --   -0.98499  -0.88258  -0.75474  -0.73880  -0.64266
  Beta  occ. eigenvalues --   -0.59198  -0.54171  -0.50359  -0.48945  -0.45660
  Beta  occ. eigenvalues --   -0.43668  -0.40892  -0.38421  -0.37256  -0.36302
  Beta  occ. eigenvalues --   -0.33255  -0.27787
  Beta virt. eigenvalues --   -0.11308  -0.09813  -0.08302  -0.03613  -0.01962
  Beta virt. eigenvalues --    0.00956   0.01831   0.03275   0.04707   0.05276
  Beta virt. eigenvalues --    0.05808   0.06318   0.06967   0.07737   0.08747

 Mulliken atomic charges:
              1
     1  C    0.360079
     2  N   -0.015725
     3  N   -0.454507
     4  C    1.040385
     5  H   -0.488381
     6  C    0.594841
     7  H   -0.525952
     8  N   -0.081557
     9  N   -0.051902
    10  N   -0.377280
 Sum of Mulliken atomic charges =   0.00000

 Dipole moment (field-independent basis, Debye):
    X=              4.0889    Y=              2.0680    Z=              0.1562  Tot=              4.5848
 Quadrupole moment (field-independent basis, Debye-Ang):
   XX=            -42.6846   YY=            -50.8742   ZZ=            -44.4963
   XY=              3.1322   XZ=              1.0311   YZ=              0.7521

  Exact polarizability: 100.832   3.283  67.838  -0.567  -0.912  42.456
 Approx polarizability: 156.117   8.604 122.894  -1.874  -2.799  67.579

                     1                      2                      3
                     A                      A                      A
 Frequencies --    82.6072               146.3912               285.2746
 Red. masses --    10.6950                 6.9216                 7.8840
 Frc consts  --     0.0430                 0.0874                 0.3780
 IR Inten    --     1.7760                 2.1211                 2.5589

                     4                      5                      6
                     A                      A                      A
 Frequencies --   380.0833               426.0722               507.3927
 Red. masses --     5.7160                 9.5919                 8.6514
 Frc consts  --     0.4865                 1.0259                 1.3123
 IR Inten    --     3.3357                 5.8072                 5.5234

                     7                      8                      9
                     A                      A                      A
 Frequencies --   601.1168               642.7181               806.3840
 Red. masses --     7.0548                 9.5222                 8.9500
 Frc consts  --     1.5019                 2.3176                 3.4289
 IR Inten    --     4.4036                 1.8719                 8.9173

                    10                     11                     12
                     A                      A                      A
 Frequencies --   820.8336               884.1690              1001.7114
 Red. masses --     6.0010                 1.2907                 1.4840
 Frc consts  --     2.3822                 0.5945                 0.8773
 IR Inten    --     2.4184                20.4898                 0.1599

                    13                     14                     15
                     A                      A                      A
 Frequencies --  1028.7929              1074.4345              1125.4405
 Red. masses --     8.7956                 3.8820                 3.2362
 Frc consts  --     5.4849                 2.6404                 2.4151
 IR Inten    --     0.4068                15.8911                 6.4598

                    16                     17                     18
                     A                      A                      A
 Frequencies --  1163.3051              1232.8344              1350.3225
 Red. masses --     3.7054                 3.0656                 2.1386
 Frc consts  --     2.9544                 2.7452                 2.2975
 IR Inten    --    35.7245                48.5535                60.4447

                    19                     20                     21
                     A                      A                      A
 Frequencies --  1433.4968              1565.2439              1577.0019
 Red. masses --     2.3788                 6.4578                 5.5423
 Frc consts  --     2.8800                 9.3218                 8.1208
 IR Inten    --    14.7322                34.7472                24.5581

                    22                     23                     24
                     A                      A                      A
 Frequencies --  1870.8173              3174.9979              3204.4973
 Red. masses --    13.9880                 1.0915                 1.0960
 Frc consts  --    28.8448                 6.4830                 6.6309
 IR Inten    --    15.8463                 6.2105                 5.6169

 - Thermochemistry -
 -------------------
 Temperature   298.150 Kelvin.  Pressure   1.00000 Atm.
 Atom     1 has atomic number  6 and mass  12.00000

 Molecular mass:   108.03102 amu.
 Principal axes and moments of inertia in atomic units:
                           1         2         3
     Eigenvalues --   313.430351002.163011294.54491
           X            0.99989   0.01472   0.00295
           Y           -0.01473   0.99989   0.00300
           Z           -0.00291  -0.00304   0.99999
 This molecule is an asymmetric top.
 Rotational symmetry number  1.
 Rotational temperatures (Kelvin)      0.27634     0.08643     0.06691
 Rotational constants (GHZ):           5.75803     1.80085     1.39411
 Zero-point vibrational energy     157823.0 (Joules/Mol)
                                   37.72059 (Kcal/Mol)
 Warning -- explicit consideration of   7 degrees of freedom as
           vibrations may cause significant error
 Vibrational temperatures:    118.85   210.62   410.45   546.85   613.02
          (Kelvin)            730.02   864.87   924.73  1160.21  1181.00
                             1272.12  1441.24  1480.20  1545.87  1619.26
                             1673.73  1773.77  1942.81  2062.48  2252.03
                             2268.95  2691.69  4568.11  4610.55

 Zero-point correction=                           0.060112 (Hartree/Particle)
 Thermal correction to Energy=                    0.066315
 Thermal correction to Enthalpy=                  0.067260
 Thermal correction to Gibbs Free Energy=         0.028660
 Sum of electronic and zero-point Energies=           -389.147983
 Sum of electronic and thermal Energies=              -389.141779
 Sum of electronic and thermal Enthalpies=            -389.140835
 Sum of electronic and thermal Free Energies=         -389.179434

                     E (Thermal)             CV                S
                      KCal/Mol        Cal/Mol-Kelvin    Cal/Mol-Kelvin
 Total                   41.614             21.495             81.239
 Electronic               0.000              0.000              1.377
 Translational            0.889              2.981             39.948
 Rotational               0.889              2.981             27.500
 Vibrational             39.836             15.534             12.413
 Vibration     1          0.600              1.961              3.828
 Vibration     2          0.617              1.907              2.719
 Vibration     3          0.683              1.701              1.502
 Vibration     4          0.750              1.513              1.039
 Vibration     5          0.788              1.414              0.872
 Vibration     6          0.863              1.234              0.640
 Vibration     7          0.959              1.029              0.448

 Optimization completed.
    -- Stationary point found.
 Normal termination of Gaussian 09 at Mon Mar 19 21:41:31 2018.
