 Gaussian 09, Revision B.01,
 Gaussian 09:  EM64L-G09RevB.01 12-Aug-2010

 -------------------------------------------------
 #p Temperature=298.15 opt freq UB3LYP/aug-cc-pVDZ
 -------------------------------------------------

 ---------------------------------------------
 1,2,4-Triazine-6-N2-UB3LYP-aug-cc-pVDZ-Duplet
 ---------------------------------------------
 Symbolic Z-matrix:
 Charge =  0 Multiplicity = 2

 SCF Done:  E(UB3LYP) =  -389.052868516     A.U. after   26 cycles
 SCF Done:  E(UB3LYP) =  -389.128954305     A.U. after   21 cycles
 SCF Done:  E(UB3LYP) =  -389.167289704     A.U. after   23 cycles
 SCF Done:  E(UB3LYP) =  -389.191408377     A.U. after   22 cycles
 SCF Done:  E(UB3LYP) =  -389.201076595     A.U. after   21 cycles
 SCF Done:  E(UB3LYP) =  -389.204049193     A.U. after   17 cycles
 SCF Done:  E(UB3LYP) =  -389.206227862     A.U. after   20 cycles
 SCF Done:  E(UB3LYP) =  -389.207374855     A.U. after   20 cycles
 SCF Done:  E(UB3LYP) =  -389.208433206     A.U. after   20 cycles
 SCF Done:  E(UB3LYP) =  -389.208640154     A.U. after   20 cycles
 SCF Done:  E(UB3LYP) =  -389.208667415     A.U. after   15 cycles
 SCF Done:  E(UB3LYP) =  -389.208678906     A.U. after   16 cycles
 SCF Done:  E(UB3LYP) =  -389.208682837     A.U. after   15 cycles
 SCF Done:  E(UB3LYP) =  -389.208683452     A.U. after   13 cycles
 SCF Done:  E(UB3LYP) =  -389.208683589     A.U. after   12 cycles
 SCF Done:  E(UB3LYP) =  -389.208683678     A.U. after   12 cycles
 SCF Done:  E(UB3LYP) =  -389.208683717     A.U. after   12 cycles
 SCF Done:  E(UB3LYP) =  -389.208683742     A.U. after   11 cycles
 Optimization completed.
    -- Stationary point found.
 Normal termination of Gaussian 09 at Mon Mar 19 22:29:20 2018.

 ----------------------------------------------------------------------
 #P Geom=AllCheck Guess=TCheck SCRF=Check GenChk UB3LYP/Aug-CC-pVDZ Fre
 q
 ----------------------------------------------------------------------

 1,2,4-Triazine-6-N2-UB3LYP-aug-cc-pVDZ-Duplet
 ---------------------------------------------
 Redundant internal coordinates taken from checkpoint file:
 1.chk,2,4-Triazine-6-N2-UB3LYP-aug-cc-pVDZ-Duplet.chk
 Charge =  0 Multiplicity = 2

                         Standard orientation:
 ---------------------------------------------------------------------
 Center     Atomic      Atomic             Coordinates (Angstroms)
 Number     Number       Type             X           Y           Z
 ---------------------------------------------------------------------
      1          6           0        0.525381   -0.205595   -0.019297
      2          6           0        0.018549    1.104134   -0.023589
      3          7           0        1.957040   -0.501643   -0.051746
      4          7           0        2.790406    0.330442    0.066034
      5          1           0        0.680620    1.972043   -0.045145
      6          7           0       -0.256948   -1.275454   -0.005418
      7          7           0       -1.293125    1.294409   -0.005386
      8          7           0       -1.575552   -1.086444    0.018647
      9          6           0       -2.030380    0.171199    0.018427
     10          1           0       -3.114674    0.280359    0.036967
 ---------------------------------------------------------------------

 SCF Done:  E(UB3LYP) =  -389.208683742     A.U. after    1 cycles

 The electronic state is 2-A.
 Alpha  occ. eigenvalues --  -14.44984 -14.43080 -14.42400 -14.41306 -14.40026
 Alpha  occ. eigenvalues --  -10.31665 -10.30070 -10.29590  -1.11155  -1.08326
 Alpha  occ. eigenvalues --   -0.98277  -0.89447  -0.76159  -0.74113  -0.65409
 Alpha  occ. eigenvalues --   -0.59943  -0.56724  -0.50805  -0.50314  -0.47212
 Alpha  occ. eigenvalues --   -0.45617  -0.44581  -0.38755  -0.37870  -0.36303
 Alpha  occ. eigenvalues --   -0.34044  -0.28094  -0.23769
 Alpha virt. eigenvalues --   -0.11824  -0.11165  -0.03822  -0.01252   0.00604
 Alpha virt. eigenvalues --    0.02236   0.03099   0.03968   0.05150   0.06379
 Alpha virt. eigenvalues --    0.06614   0.07655   0.08537   0.08555   0.08901

  Beta  occ. eigenvalues --  -14.44594 -14.42445 -14.41549 -14.41286 -14.39995
  Beta  occ. eigenvalues --  -10.31267 -10.30086 -10.29580  -1.09926  -1.07738
  Beta  occ. eigenvalues --   -0.98236  -0.88928  -0.75084  -0.73987  -0.64124
  Beta  occ. eigenvalues --   -0.59648  -0.56599  -0.50416  -0.47508  -0.46240
  Beta  occ. eigenvalues --   -0.45014  -0.40770  -0.38773  -0.37694  -0.35971
  Beta  occ. eigenvalues --   -0.33670  -0.27871
  Beta virt. eigenvalues --   -0.11398  -0.10878  -0.09817  -0.03193  -0.01168
  Beta virt. eigenvalues --    0.00660   0.02271   0.03176   0.04042   0.05210
  Beta virt. eigenvalues --    0.06448   0.06624   0.07650   0.08682   0.08747

 Mulliken atomic charges:
              1
     1  C    0.559528
     2  C    0.799925
     3  N    0.079079
     4  N   -0.531412
     5  H   -0.470981
     6  N   -0.272565
     7  N   -0.172034
     8  N   -0.141194
     9  C    0.528260
    10  H   -0.378604
 Sum of Mulliken atomic charges =   0.00000

 Dipole moment (field-independent basis, Debye):
    X=             -1.2457    Y=              2.1533    Z=             -0.0523  Tot=              2.4882
 Quadrupole moment (field-independent basis, Debye-Ang):
   XX=            -48.3101   YY=            -51.4181   ZZ=            -43.6289
   XY=             -0.2866   XZ=             -0.2050   YZ=             -0.2309

  Exact polarizability:  99.275   4.166  68.919   0.126   0.261  40.077
 Approx polarizability: 159.257  13.529 126.239   0.543   0.814  62.533

                     1                      2                      3
                     A                      A                      A
 Frequencies --    28.9761               192.1745               244.9376
 Red. masses --     9.8418                 4.5721                 8.6205
 Frc consts  --     0.0049                 0.0995                 0.3047
 IR Inten    --     1.1235                 0.0580                 4.9254

                     4                      5                      6
                     A                      A                      A
 Frequencies --   388.9466               446.9754               476.0773
 Red. masses --     6.9125                 6.1276                10.3836
 Frc consts  --     0.6161                 0.7213                 1.3866
 IR Inten    --     8.8702                17.7540                 3.5355

                     7                      8                      9
                     A                      A                      A
 Frequencies --   598.5077               638.3447               778.9156
 Red. masses --    10.4562                10.9519                 3.2189
 Frc consts  --     2.2068                 2.6294                 1.1506
 IR Inten    --     9.8944                 5.8747                 6.7168

                    10                     11                     12
                     A                      A                      A
 Frequencies --   807.9355               943.0537              1012.0093
 Red. masses --    10.5275                 1.5592                 1.4722
 Frc consts  --     4.0488                 0.8170                 0.8883
 IR Inten    --     3.9965                 6.0653                 0.1407

                    13                     14                     15
                     A                      A                      A
 Frequencies --  1051.5829              1087.0655              1156.5517
 Red. masses --     5.5312                 9.4733                10.9431
 Frc consts  --     3.6037                 6.5957                 8.6242
 IR Inten    --    15.8196                 1.4549                 4.1534

                    16                     17                     18
                     A                      A                      A
 Frequencies --  1170.8904              1233.0365              1387.0761
 Red. masses --     2.3295                 2.4755                 2.0196
 Frc consts  --     1.8817                 2.2175                 2.2894
 IR Inten    --    17.5222                14.3948                54.4823

                    19                     20                     21
                     A                      A                      A
 Frequencies --  1430.4406              1558.9631              1581.7379
 Red. masses --     1.9446                 9.9532                 5.3119
 Frc consts  --     2.3443                14.2523                 7.8301
 IR Inten    --     1.8336                 7.2283                10.6998

                    22                     23                     24
                     A                      A                      A
 Frequencies --  1859.7097              3182.1552              3205.1234
 Red. masses --    13.9500                 1.0935                 1.0934
 Frc consts  --    28.4259                 6.5237                 6.6180
 IR Inten    --    14.6448                 1.0643                 3.6303

 - Thermochemistry -
 -------------------
 Temperature   298.150 Kelvin.  Pressure   1.00000 Atm.
 Atom     1 has atomic number  6 and mass  12.00000

 Molecular mass:   108.03102 amu.
 Principal axes and moments of inertia in atomic units:
                           1         2         3
     Eigenvalues --   312.061061017.271161328.45552
           X            1.00000   0.00210  -0.00051
           Y           -0.00210   1.00000  -0.00090
           Z            0.00051   0.00090   1.00000
 This molecule is an asymmetric top.
 Rotational symmetry number  1.
 Rotational temperatures (Kelvin)      0.27755     0.08514     0.06520
 Rotational constants (GHZ):           5.78330     1.77410     1.35853
 Zero-point vibrational energy     158273.0 (Joules/Mol)
                                   37.82817 (Kcal/Mol)
 Warning -- explicit consideration of   7 degrees of freedom as
           vibrations may cause significant error
 Vibrational temperatures:     41.69   276.50   352.41   559.61   643.10
          (Kelvin)            684.97   861.12   918.43  1120.68  1162.44
                             1356.84  1456.05  1512.99  1564.04  1664.02
                             1684.65  1774.06  1995.69  2058.08  2243.00
                             2275.77  2675.70  4578.41  4611.45

 Zero-point correction=                           0.060283 (Hartree/Particle)
 Thermal correction to Energy=                    0.066566
 Thermal correction to Enthalpy=                  0.067511
 Thermal correction to Gibbs Free Energy=         0.028044
 Sum of electronic and zero-point Energies=           -389.148401
 Sum of electronic and thermal Energies=              -389.142117
 Sum of electronic and thermal Enthalpies=            -389.141173
 Sum of electronic and thermal Free Energies=         -389.180640

                     E (Thermal)             CV                S
                      KCal/Mol        Cal/Mol-Kelvin    Cal/Mol-Kelvin
 Total                   41.771             21.453             83.065
 Electronic               0.000              0.000              1.377
 Translational            0.889              2.981             39.948
 Rotational               0.889              2.981             27.536
 Vibrational             39.994             15.492             14.203
 Vibration     1          0.593              1.984              5.898
 Vibration     2          0.634              1.851              2.207
 Vibration     3          0.660              1.771              1.767
 Vibration     4          0.757              1.494              1.004
 Vibration     5          0.806              1.368              0.805
 Vibration     6          0.833              1.303              0.721
 Vibration     7          0.957              1.035              0.452

 Optimization completed.
    -- Stationary point found.
 Normal termination of Gaussian 09 at Mon Mar 19 22:33:58 2018.
