 Gaussian 09, Revision B.01,
 Gaussian 09:  EM64L-G09RevB.01 12-Aug-2010

 -------------------------------------------------
 #p Temperature=298.15 opt freq UB3LYP/aug-cc-pVDZ
 -------------------------------------------------

 ---------------------------------------------
 1,2,4-Triazine-5-N2-UB3LYP-aug-cc-pVDZ-Duplet
 ---------------------------------------------
 Symbolic Z-matrix:
 Charge =  0 Multiplicity = 2

 SCF Done:  E(UB3LYP) =  -389.014602313     A.U. after   26 cycles
 SCF Done:  E(UB3LYP) =  -389.095032418     A.U. after   20 cycles
 SCF Done:  E(UB3LYP) =  -389.154371543     A.U. after   20 cycles
 SCF Done:  E(UB3LYP) =  -389.187383277     A.U. after   20 cycles
 SCF Done:  E(UB3LYP) =  -389.200688467     A.U. after   23 cycles
 SCF Done:  E(UB3LYP) =  -389.201895025     A.U. after   18 cycles
 SCF Done:  E(UB3LYP) =  -389.202544950     A.U. after   17 cycles
 SCF Done:  E(UB3LYP) =  -389.202725525     A.U. after   21 cycles
 SCF Done:  E(UB3LYP) =  -389.202851704     A.U. after   18 cycles
 SCF Done:  E(UB3LYP) =  -389.203066314     A.U. after   17 cycles
 SCF Done:  E(UB3LYP) =  -389.209571803     A.U. after   20 cycles
 SCF Done:  E(UB3LYP) =  -389.209723202     A.U. after   20 cycles
 SCF Done:  E(UB3LYP) =  -389.208016287     A.U. after   22 cycles
 SCF Done:  E(UB3LYP) =  -389.209801203     A.U. after   21 cycles
 SCF Done:  E(UB3LYP) =  -389.209972173     A.U. after   19 cycles
 SCF Done:  E(UB3LYP) =  -389.210023062     A.U. after   17 cycles
 SCF Done:  E(UB3LYP) =  -389.210033563     A.U. after   16 cycles
 SCF Done:  E(UB3LYP) =  -389.210035133     A.U. after   15 cycles
 SCF Done:  E(UB3LYP) =  -389.210035219     A.U. after   12 cycles
 Optimization completed.
    -- Stationary point found.
 Normal termination of Gaussian 09 at Wed Mar 21 00:00:44 2018.

 ----------------------------------------------------------------------
 #P Geom=AllCheck Guess=TCheck SCRF=Check GenChk UB3LYP/Aug-CC-pVDZ Fre
 q
 ----------------------------------------------------------------------

 1,2,4-Triazine-5-N2-UB3LYP-aug-cc-pVDZ-Duplet
 ---------------------------------------------
 Redundant internal coordinates taken from checkpoint file:
 1.chk,2,4-Triazine-5-N2-UB3LYP-aug-cc-pVDZ-Duplet.chk
 Charge =  0 Multiplicity = 2

                         Standard orientation:
 ---------------------------------------------------------------------
 Center     Atomic      Atomic             Coordinates (Angstroms)
 Number     Number       Type             X           Y           Z
 ---------------------------------------------------------------------
      1          6           0       -0.531266   -0.207271   -0.066412
      2          6           0       -0.010361    1.095226   -0.071223
      3          7           0       -1.970355   -0.464089   -0.187969
      4          7           0       -2.794682    0.275241    0.227391
      5          1           0       -0.646462    1.978078   -0.129467
      6          6           0        1.557653   -0.986668    0.057554
      7          1           0        2.249747   -1.826432    0.116387
      8          7           0        0.246881   -1.267880   -0.017585
      9          7           0        2.112031    0.229767    0.060568
     10          7           0        1.306205    1.289907   -0.011896
 ---------------------------------------------------------------------

 SCF Done:  E(UB3LYP) =  -389.210035219     A.U. after    1 cycles

 The electronic state is 2-A.
 Alpha  occ. eigenvalues --  -14.45424 -14.43758 -14.42128 -14.40946 -14.40102
 Alpha  occ. eigenvalues --  -10.32934 -10.30081 -10.28173  -1.11502  -1.08190
 Alpha  occ. eigenvalues --   -0.98760  -0.88442  -0.78017  -0.73101  -0.65579
 Alpha  occ. eigenvalues --   -0.59940  -0.54168  -0.51786  -0.50468  -0.49342
 Alpha  occ. eigenvalues --   -0.45984  -0.44792  -0.38427  -0.36882  -0.36058
 Alpha  occ. eigenvalues --   -0.34109  -0.28560  -0.23952
 Alpha virt. eigenvalues --   -0.12689  -0.09500  -0.04844  -0.00979   0.00412
 Alpha virt. eigenvalues --    0.02702   0.03403   0.03711   0.05018   0.05487
 Alpha virt. eigenvalues --    0.06634   0.07838   0.08331   0.08714   0.09012

  Beta  occ. eigenvalues --  -14.45062 -14.42229 -14.42099 -14.40962 -14.40128
  Beta  occ. eigenvalues --  -10.32536 -10.30061 -10.28163  -1.09995  -1.07908
  Beta  occ. eigenvalues --   -0.98601  -0.88206  -0.76683  -0.72979  -0.64482
  Beta  occ. eigenvalues --   -0.59678  -0.53637  -0.50885  -0.50076  -0.46355
  Beta  occ. eigenvalues --   -0.45310  -0.41622  -0.38184  -0.36722  -0.35972
  Beta  occ. eigenvalues --   -0.33788  -0.27974
  Beta virt. eigenvalues --   -0.12057  -0.10553  -0.09122  -0.04100  -0.00876
  Beta virt. eigenvalues --    0.00452   0.02763   0.03418   0.03748   0.05059
  Beta virt. eigenvalues --    0.05596   0.06726   0.07863   0.08454   0.08839

 Mulliken atomic charges:
              1
     1  C    0.138178
     2  C    1.269353
     3  N    0.022544
     4  N   -0.478808
     5  H   -0.469055
     6  C    0.542762
     7  H   -0.445834
     8  N   -0.082266
     9  N   -0.113079
    10  N   -0.383794
 Sum of Mulliken atomic charges =   0.00000

 Dipole moment (field-independent basis, Debye):
    X=              0.0137    Y=             -0.4040    Z=             -0.1701  Tot=              0.4386
 Quadrupole moment (field-independent basis, Debye-Ang):
   XX=            -54.3465   YY=            -46.3028   ZZ=            -44.0429
   XY=             -6.7009   XZ=              0.4723   YZ=             -1.0716

  Exact polarizability:  98.105  -5.190  70.352  -0.385   0.747  41.107
 Approx polarizability: 160.861  -9.912 124.659  -1.507   2.544  64.776

                     1                      2                      3
                     A                      A                      A
 Frequencies --    70.9463               163.9641               262.1377
 Red. masses --     9.8264                 8.5993                 8.4383
 Frc consts  --     0.0291                 0.1362                 0.3416
 IR Inten    --     1.8274                 8.1535                 5.3245

                     4                      5                      6
                     A                      A                      A
 Frequencies --   370.9535               439.6768               490.7463
 Red. masses --     4.3878                 9.1304                 9.0782
 Frc consts  --     0.3557                 1.0399                 1.2881
 IR Inten    --    20.4258                 3.0356                 0.8791

                     7                      8                      9
                     A                      A                      A
 Frequencies --   589.7411               674.0778               796.0477
 Red. masses --     6.9600                10.7576                 6.9910
 Frc consts  --     1.4262                 2.8800                 2.6102
 IR Inten    --     5.6699                 3.8045                11.1881

                    10                     11                     12
                     A                      A                      A
 Frequencies --   807.5936               925.2556               988.6140
 Red. masses --     6.1495                 1.4663                 1.3765
 Frc consts  --     2.3631                 0.7396                 0.7926
 IR Inten    --     3.3640                11.5432                 0.4257

                    13                     14                     15
                     A                      A                      A
 Frequencies --  1022.2375              1074.5886              1153.7262
 Red. masses --     9.4942                 3.5628                 3.7250
 Frc consts  --     5.8454                 2.4240                 2.9213
 IR Inten    --     7.8610                31.1752                16.4851

                    16                     17                     18
                     A                      A                      A
 Frequencies --  1166.0579              1280.8693              1319.7092
 Red. masses --     5.7348                 6.5988                 1.3444
 Frc consts  --     4.5942                 6.3786                 1.3795
 IR Inten    --     2.9429                42.3688                 3.7583

                    19                     20                     21
                     A                      A                      A
 Frequencies --  1456.3281              1547.9475              1583.2657
 Red. masses --     1.9356                 6.8701                 8.1199
 Frc consts  --     2.4187                 9.6990                11.9924
 IR Inten    --     3.1235                59.5158                31.6358

                    22                     23                     24
                     A                      A                      A
 Frequencies --  1864.3487              3204.2775              3206.2318
 Red. masses --    13.9399                 1.0933                 1.0936
 Frc consts  --    28.5472                 6.6136                 6.6239
 IR Inten    --    14.4288                 4.6888                 1.4538

 - Thermochemistry -
 -------------------
 Temperature   298.150 Kelvin.  Pressure   1.00000 Atm.
 Atom     1 has atomic number  6 and mass  12.00000

 Molecular mass:   108.03102 amu.
 Principal axes and moments of inertia in atomic units:
                           1         2         3
     Eigenvalues --   306.550341037.536891333.67766
           X            0.99966  -0.02613   0.00130
           Y            0.02614   0.99964  -0.00569
           Z           -0.00115   0.00572   0.99998
 This molecule is an asymmetric top.
 Rotational symmetry number  1.
 Rotational temperatures (Kelvin)      0.28254     0.08348     0.06494
 Rotational constants (GHZ):           5.88726     1.73945     1.35321
 Zero-point vibrational energy     158262.0 (Joules/Mol)
                                   37.82553 (Kcal/Mol)
 Warning -- explicit consideration of   7 degrees of freedom as
           vibrations may cause significant error
 Vibrational temperatures:    102.08   235.91   377.16   533.72   632.60
          (Kelvin)            706.07   848.50   969.85  1145.33  1161.95
                             1331.23  1422.39  1470.77  1546.09  1659.95
                             1677.70  1842.88  1898.76  2095.33  2227.15
                             2277.96  2682.38  4610.23  4613.05

 Zero-point correction=                           0.060279 (Hartree/Particle)
 Thermal correction to Energy=                    0.066505
 Thermal correction to Enthalpy=                  0.067449
 Thermal correction to Gibbs Free Energy=         0.028719
 Sum of electronic and zero-point Energies=           -389.149756
 Sum of electronic and thermal Energies=              -389.143530
 Sum of electronic and thermal Enthalpies=            -389.142586
 Sum of electronic and thermal Free Energies=         -389.181316

                     E (Thermal)             CV                S
                      KCal/Mol        Cal/Mol-Kelvin    Cal/Mol-Kelvin
 Total                   41.732             21.474             81.514
 Electronic               0.000              0.000              1.377
 Translational            0.889              2.981             39.948
 Rotational               0.889              2.981             27.542
 Vibrational             39.955             15.512             12.647
 Vibration     1          0.598              1.968              4.127
 Vibration     2          0.623              1.887              2.504
 Vibration     3          0.669              1.742              1.647
 Vibration     4          0.743              1.532              1.076
 Vibration     5          0.800              1.384              0.828
 Vibration     6          0.847              1.271              0.682
 Vibration     7          0.947              1.054              0.468

 Optimization completed.
    -- Stationary point found.
 Normal termination of Gaussian 09 at Wed Mar 21 00:05:29 2018.
