 Gaussian 09, Revision B.01,
 Gaussian 09:  EM64L-G09RevB.01 12-Aug-2010

 -------------------------------------------------
 #p Temperature=298.15 opt freq UB3LYP/aug-cc-pVDZ
 -------------------------------------------------

 ------------------------------------------
 1,2,4-Triazine-3-UB3LYP-aug-cc-pVDZ-Duplet
 ------------------------------------------
 Symbolic Z-matrix:
 Charge =  0 Multiplicity = 2

 SCF Done:  E(UB3LYP) =  -279.649721027     A.U. after   17 cycles
 SCF Done:  E(UB3LYP) =  -279.674909874     A.U. after   17 cycles
 SCF Done:  E(UB3LYP) =  -279.676060208     A.U. after   17 cycles
 SCF Done:  E(UB3LYP) =  -279.676182726     A.U. after   15 cycles
 SCF Done:  E(UB3LYP) =  -279.676212893     A.U. after   18 cycles
 SCF Done:  E(UB3LYP) =  -279.676218850     A.U. after   18 cycles
 SCF Done:  E(UB3LYP) =  -279.676220954     A.U. after   12 cycles
 Optimization completed.
    -- Stationary point found.
 Normal termination of Gaussian 09 at Mon Mar  5 21:07:06 2018.

 ----------------------------------------------------------------------
 #P Geom=AllCheck Guess=TCheck SCRF=Check GenChk UB3LYP/Aug-CC-pVDZ Fre
 q
 ----------------------------------------------------------------------

 1,2,4-Triazine-3-UB3LYP-aug-cc-pVDZ-Duplet
 ------------------------------------------
 Redundant internal coordinates taken from checkpoint file:
 1.chk,2,4-Triazine-3-UB3LYP-aug-cc-pVDZ-Duplet.chk
 Charge =  0 Multiplicity = 2

                         Standard orientation:
 ---------------------------------------------------------------------
 Center     Atomic      Atomic             Coordinates (Angstroms)
 Number     Number       Type             X           Y           Z
 ---------------------------------------------------------------------
      1          6           0       -0.160754   -1.294958   -0.000146
      2          6           0        0.087034    1.241645   -0.000147
      3          1           0        0.156310    2.330265   -0.000129
      4          6           0        1.232398    0.427499    0.000199
      5          1           0        2.242476    0.843031    0.000327
      6          7           0        1.090238   -0.900401   -0.000104
      7          7           0       -1.279913   -0.610926    0.000211
      8          7           0       -1.146161    0.737267   -0.000054
 ---------------------------------------------------------------------

 SCF Done:  E(UB3LYP) =  -279.676220954     A.U. after    1 cycles

 The electronic state is 2-A.
 Alpha  occ. eigenvalues --  -14.41657 -14.40462 -14.39764 -10.29432 -10.28974
 Alpha  occ. eigenvalues --  -10.26736  -1.07481  -0.97634  -0.87116  -0.73383
 Alpha  occ. eigenvalues --   -0.69746  -0.58017  -0.54819  -0.49555  -0.48171
 Alpha  occ. eigenvalues --   -0.40650  -0.37732  -0.36435  -0.33575  -0.28304
 Alpha  occ. eigenvalues --   -0.25995
 Alpha virt. eigenvalues --   -0.10843  -0.06480  -0.01736   0.01164   0.02286
 Alpha virt. eigenvalues --    0.03725   0.05482   0.05619   0.06305   0.06372
 Alpha virt. eigenvalues --    0.08249   0.08398   0.09203   0.09486   0.09826

  Beta  occ. eigenvalues --  -14.41430 -14.40319 -14.39494 -10.28820 -10.27909
  Beta  occ. eigenvalues --  -10.26795  -1.06879  -0.97037  -0.86371  -0.72740
  Beta  occ. eigenvalues --   -0.68493  -0.57292  -0.54150  -0.48932  -0.47757
  Beta  occ. eigenvalues --   -0.38408  -0.37523  -0.35376  -0.33036  -0.27311
  Beta virt. eigenvalues --   -0.11224  -0.10653  -0.05372  -0.01715   0.01186
  Beta virt. eigenvalues --    0.02525   0.03724   0.05609   0.06070   0.06405
  Beta virt. eigenvalues --    0.06622   0.08459   0.08482   0.09278   0.09891

 Mulliken atomic charges:
              1
     1  C   -0.140045
     2  C    1.016857
     3  H   -0.473988
     4  C    0.557960
     5  H   -0.464389
     6  N   -0.097366
     7  N   -0.049428
     8  N   -0.349601
 Sum of Mulliken atomic charges =   0.00000

 Dipole moment (field-independent basis, Debye):
    X=              2.7780    Y=              2.3367    Z=              0.0000  Tot=              3.6301
 Quadrupole moment (field-independent basis, Debye-Ang):
   XX=            -38.2312   YY=            -33.2901   ZZ=            -33.7514
   XY=              3.4961   XZ=              0.0013   YZ=              0.0002

  Exact polarizability:  62.373   2.589  63.084   0.001   0.000  33.559
 Approx polarizability: 114.669   4.117 109.015   0.000   0.001  50.737

                     1                      2                      3
                     A                      A                      A
 Frequencies --   333.7153               373.4421               567.5267
 Red. masses --     3.6137                 9.7268                10.7581
 Frc consts  --     0.2371                 0.7992                 2.0415
 IR Inten    --     0.0064                11.6213                 6.0742

                     4                      5                      6
                     A                      A                      A
 Frequencies --   732.7741               761.2185               866.2051
 Red. masses --     9.2758                 6.2805                 1.1946
 Frc consts  --     2.9346                 2.1442                 0.5281
 IR Inten    --     1.3956                 0.1012                13.0365

                     7                      8                      9
                     A                      A                      A
 Frequencies --   963.5235               992.4605              1012.2567
 Red. masses --     9.9808                 1.4802                 8.8503
 Frc consts  --     5.4594                 0.8590                 5.3430
 IR Inten    --    19.2444                 0.0090                13.7264

                    10                     11                     12
                     A                      A                      A
 Frequencies --  1082.9485              1127.0019              1204.0197
 Red. masses --     2.6291                 3.7873                 2.2189
 Frc consts  --     1.8167                 2.8342                 1.8952
 IR Inten    --     0.2462                 2.0621                 4.8540

                    13                     14                     15
                     A                      A                      A
 Frequencies --  1337.7562              1421.3406              1520.2035
 Red. masses --     2.2807                 2.4866                 4.4353
 Frc consts  --     2.4048                 2.9597                 6.0392
 IR Inten    --    24.3815                 5.3212                13.4682

                    16                     17                     18
                     A                      A                      A
 Frequencies --  1542.0043              3174.0761              3194.7505
 Red. masses --     6.8354                 1.0900                 1.0965
 Frc consts  --     9.5760                 6.4700                 6.5935
 IR Inten    --    67.9499                 4.7311                 7.5048

 - Thermochemistry -
 -------------------
 Temperature   298.150 Kelvin.  Pressure   1.00000 Atm.
 Atom     1 has atomic number  6 and mass  12.00000

 Molecular mass:    80.02487 amu.
 Principal axes and moments of inertia in atomic units:
                           1         2         3
     Eigenvalues --   252.04052 293.25891 545.29941
           X            0.97841   0.20669   0.00001
           Y           -0.20669   0.97841   0.00000
           Z           -0.00001   0.00000   1.00000
 This molecule is an asymmetric top.
 Rotational symmetry number  1.
 Rotational temperatures (Kelvin)      0.34365     0.29535     0.15884
 Rotational constants (GHZ):           7.16052     6.15409     3.30963
 Zero-point vibrational energy     132828.7 (Joules/Mol)
                                   31.74682 (Kcal/Mol)
 Warning -- explicit consideration of   3 degrees of freedom as
           vibrations may cause significant error
 Vibrational temperatures:    480.14   537.30   816.54  1054.30  1095.22
          (Kelvin)           1246.27  1386.29  1427.93  1456.41  1558.12
                             1621.50  1732.31  1924.73  2044.99  2187.23
                             2218.60  4566.78  4596.53

 Zero-point correction=                           0.050592 (Hartree/Particle)
 Thermal correction to Energy=                    0.054777
 Thermal correction to Enthalpy=                  0.055721
 Thermal correction to Gibbs Free Energy=         0.022633
 Sum of electronic and zero-point Energies=           -279.625629
 Sum of electronic and thermal Energies=              -279.621444
 Sum of electronic and thermal Enthalpies=            -279.620500
 Sum of electronic and thermal Free Energies=         -279.653588

                     E (Thermal)             CV                S
                      KCal/Mol        Cal/Mol-Kelvin    Cal/Mol-Kelvin
 Total                   34.373             14.517             69.639
 Electronic               0.000              0.000              1.377
 Translational            0.889              2.981             39.054
 Rotational               0.889              2.981             25.203
 Vibrational             32.595              8.555              4.005
 Vibration     1          0.715              1.608              1.242
 Vibration     2          0.745              1.527              1.066
 Vibration     3          0.923              1.102              0.509

 Optimization completed.
    -- Stationary point found.
 Normal termination of Gaussian 09 at Mon Mar  5 21:08:40 2018.
