 Gaussian 09, Revision B.01,
 Gaussian 09:  EM64L-G09RevB.01 12-Aug-2010

 -------------------------------------------------
 #p Temperature=298.15 opt freq UB3LYP/aug-cc-pVDZ
 -------------------------------------------------

 -----------------------------------------------
 1,2,4-Triazine-3-N2+-UB3LYP-aug-cc-pVDZ-Singlet
 -----------------------------------------------
 Symbolic Z-matrix:
 Charge =  1 Multiplicity = 1

 SCF Done:  E(UB3LYP) =  -388.896111161     A.U. after   16 cycles
 SCF Done:  E(UB3LYP) =  -388.922873038     A.U. after   13 cycles
 SCF Done:  E(UB3LYP) =  -388.925559930     A.U. after   16 cycles
 SCF Done:  E(UB3LYP) =  -388.926039017     A.U. after   12 cycles
 SCF Done:  E(UB3LYP) =  -388.926213158     A.U. after   15 cycles
 SCF Done:  E(UB3LYP) =  -388.926179772     A.U. after   15 cycles
 SCF Done:  E(UB3LYP) =  -388.926244562     A.U. after   15 cycles
 SCF Done:  E(UB3LYP) =  -388.926245315     A.U. after   17 cycles
 Optimization completed.
    -- Stationary point found.
 Normal termination of Gaussian 09 at Mon Mar  5 20:52:24 2018.

 ----------------------------------------------------------------------
 #P Geom=AllCheck Guess=TCheck SCRF=Check GenChk UB3LYP/Aug-CC-pVDZ Fre
 q
 ----------------------------------------------------------------------

 1,2,4-Triazine-3-N2+-UB3LYP-aug-cc-pVDZ-Singlet
 -----------------------------------------------
 Redundant internal coordinates taken from checkpoint file:
 1.chk,2,4-Triazine-3-N2+-UB3LYP-aug-cc-pVDZ-Singlet.chk
 Charge =  1 Multiplicity = 1

                         Standard orientation:
 ---------------------------------------------------------------------
 Center     Atomic      Atomic             Coordinates (Angstroms)
 Number     Number       Type             X           Y           Z
 ---------------------------------------------------------------------
      1          6           0        0.441539    0.029829   -0.000230
      2          7           0        1.899931    0.031390   -0.000001
      3          7           0        3.004599   -0.000355    0.000120
      4          6           0       -2.071366   -0.107709    0.000045
      5          1           0       -3.157415   -0.208712    0.000736
      6          6           0       -1.438366    1.156294   -0.000098
      7          1           0       -1.997949    2.092959    0.000710
      8          7           0       -0.106111    1.226702   -0.000079
      9          7           0       -0.049828   -1.193585    0.000157
     10          7           0       -1.382232   -1.257684   -0.000160
 ---------------------------------------------------------------------

 SCF Done:  E(UB3LYP) =  -388.926245315     A.U. after    1 cycles

 The electronic state is 1-A.
 Alpha  occ. eigenvalues --  -14.76439 -14.74583 -14.62167 -14.60946 -14.60475
 Alpha  occ. eigenvalues --  -10.57080 -10.47949 -10.46481  -1.42804  -1.29298
 Alpha  occ. eigenvalues --   -1.19378  -1.11361  -1.00432  -0.93963  -0.85885
 Alpha  occ. eigenvalues --   -0.79444  -0.77385  -0.74342  -0.74292  -0.71620
 Alpha  occ. eigenvalues --   -0.68338  -0.66595  -0.57841  -0.57225  -0.55852
 Alpha  occ. eigenvalues --   -0.53815  -0.47083
 Alpha virt. eigenvalues --   -0.34227  -0.31763  -0.29883  -0.23490  -0.16945
 Alpha virt. eigenvalues --   -0.14154  -0.12387  -0.11168  -0.10408  -0.10106
 Alpha virt. eigenvalues --   -0.09086  -0.08320  -0.06857  -0.06749  -0.05354

  Beta  occ. eigenvalues --  -14.76439 -14.74583 -14.62167 -14.60946 -14.60475
  Beta  occ. eigenvalues --  -10.57080 -10.47949 -10.46481  -1.42804  -1.29298
  Beta  occ. eigenvalues --   -1.19378  -1.11361  -1.00432  -0.93963  -0.85885
  Beta  occ. eigenvalues --   -0.79444  -0.77385  -0.74342  -0.74292  -0.71620
  Beta  occ. eigenvalues --   -0.68338  -0.66595  -0.57841  -0.57225  -0.55852
  Beta  occ. eigenvalues --   -0.53815  -0.47083
  Beta virt. eigenvalues --   -0.34227  -0.31763  -0.29883  -0.23490  -0.16945
  Beta virt. eigenvalues --   -0.14154  -0.12387  -0.11168  -0.10408  -0.10106
  Beta virt. eigenvalues --   -0.09086  -0.08320  -0.06857  -0.06749  -0.05354

 Mulliken atomic charges:
              1
     1  C    0.290551
     2  N    0.597818
     3  N   -0.434493
     4  C    1.070744
     5  H   -0.422845
     6  C    0.750118
     7  H   -0.468730
     8  N   -0.056694
     9  N    0.002005
    10  N   -0.328474
 Sum of Mulliken atomic charges =   1.00000

 Dipole moment (field-independent basis, Debye):
    X=              0.4565    Y=              2.4652    Z=              0.0006  Tot=              2.5071
 Quadrupole moment (field-independent basis, Debye-Ang):
   XX=            -15.2734   YY=            -42.9068   ZZ=            -40.7430
   XY=             -4.8741   XZ=             -0.0032   YZ=              0.0014

  Exact polarizability:  99.216  -1.087  59.774   0.001  -0.002  34.663
 Approx polarizability: 177.010   1.057 111.751   0.002  -0.002  54.177

                     1                      2                      3
                     A                      A                      A
 Frequencies --   139.2736               152.9198               311.8699
 Red. masses --     6.9114                10.5546                 4.3920
 Frc consts  --     0.0790                 0.1454                 0.2517
 IR Inten    --     4.0188                 1.5745                 5.1934

                     4                      5                      6
                     A                      A                      A
 Frequencies --   387.7922               445.9041               516.5865
 Red. masses --     9.2243                12.1273                11.7567
 Frc consts  --     0.8173                 1.4207                 1.8485
 IR Inten    --    14.1473                 6.5247                 1.8684

                     7                      8                      9
                     A                      A                      A
 Frequencies --   540.7686               634.3674               779.7988
 Red. masses --     6.5419                10.1343                 6.4576
 Frc consts  --     1.1271                 2.4028                 2.3136
 IR Inten    --     1.4780                 2.1550                 1.5417

                    10                     11                     12
                     A                      A                      A
 Frequencies --   786.6569               904.0694              1016.6402
 Red. masses --     9.1041                 1.2384                 9.2247
 Frc consts  --     3.3194                 0.5963                 5.6174
 IR Inten    --     8.4291                14.5233                18.3042

                    13                     14                     15
                     A                      A                      A
 Frequencies --  1025.6857              1057.0683              1080.9955
 Red. masses --     1.5189                 4.5481                 4.5830
 Frc consts  --     0.9415                 2.9942                 3.1554
 IR Inten    --     0.0710                 6.2219                16.0916

                    16                     17                     18
                     A                      A                      A
 Frequencies --  1137.1855              1211.8833              1343.7598
 Red. masses --     3.7021                 2.6033                 1.7694
 Frc consts  --     2.8207                 2.2526                 1.8824
 IR Inten    --     3.9190                 7.6455                22.0210

                    19                     20                     21
                     A                      A                      A
 Frequencies --  1441.9093              1527.4751              1580.0216
 Red. masses --     2.5311                 4.6554                 7.4132
 Frc consts  --     3.1005                 6.3997                10.9039
 IR Inten    --     2.0610                13.5612                40.5625

                    22                     23                     24
                     A                      A                      A
 Frequencies --  2415.8611              3205.7748              3217.8243
 Red. masses --    14.0011                 1.0940                 1.0986
 Frc consts  --    48.1454                 6.6243                 6.7022
 IR Inten    --    10.8266                 8.4475                10.2971

 - Thermochemistry -
 -------------------
 Temperature   298.150 Kelvin.  Pressure   1.00000 Atm.
 Atom     1 has atomic number  6 and mass  12.00000

 Molecular mass:   108.03102 amu.
 Principal axes and moments of inertia in atomic units:
                           1         2         3
     Eigenvalues --   299.056451058.637711357.69414
           X            0.99986  -0.01688  -0.00001
           Y            0.01688   0.99986   0.00002
           Z            0.00001  -0.00002   1.00000
 This molecule is an asymmetric top.
 Rotational symmetry number  1.
 Rotational temperatures (Kelvin)      0.28962     0.08182     0.06379
 Rotational constants (GHZ):           6.03478     1.70478     1.32927
 Zero-point vibrational energy     160671.0 (Joules/Mol)
                                   38.40129 (Kcal/Mol)
 Warning -- explicit consideration of   7 degrees of freedom as
           vibrations may cause significant error
 Vibrational temperatures:    200.38   220.02   448.71   557.95   641.56
          (Kelvin)            743.25   778.04   912.71  1121.96  1131.82
                             1300.75  1462.72  1475.73  1520.88  1555.31
                             1636.15  1743.63  1933.37  2074.58  2197.69
                             2273.30  3475.88  4612.39  4629.73

 Zero-point correction=                           0.061196 (Hartree/Particle)
 Thermal correction to Energy=                    0.067279
 Thermal correction to Enthalpy=                  0.068223
 Thermal correction to Gibbs Free Energy=         0.030811
 Sum of electronic and zero-point Energies=           -388.865049
 Sum of electronic and thermal Energies=              -388.858967
 Sum of electronic and thermal Enthalpies=            -388.858022
 Sum of electronic and thermal Free Energies=         -388.895435

                     E (Thermal)             CV                S
                      KCal/Mol        Cal/Mol-Kelvin    Cal/Mol-Kelvin
 Total                   42.218             21.596             78.741
 Electronic               0.000              0.000              0.000
 Translational            0.889              2.981             39.948
 Rotational               0.889              2.981             27.555
 Vibrational             40.441             15.634             11.238
 Vibration     1          0.615              1.914              2.814
 Vibration     2          0.619              1.899              2.636
 Vibration     3          0.700              1.651              1.352
 Vibration     4          0.756              1.496              1.009
 Vibration     5          0.805              1.370              0.808
 Vibration     6          0.872              1.213              0.618
 Vibration     7          0.896              1.160              0.564

 Optimization completed.
    -- Stationary point found.
 Normal termination of Gaussian 09 at Mon Mar  5 20:56:45 2018.
