 Gaussian 09, Revision B.01,
 Gaussian 09:  EM64L-G09RevB.01 12-Aug-2010

 -------------------------------------------------
 #p Temperature=298.15 opt freq UB3LYP/aug-cc-pVDZ
 -------------------------------------------------

 ------------------------------------------
 1,2,3-Triazine-4-UB3LYP-aug-cc-pVDZ-Duplet
 ------------------------------------------
 Symbolic Z-matrix:
 Charge =  0 Multiplicity = 2

 SCF Done:  E(UB3LYP) =  -279.631692053     A.U. after   17 cycles
 SCF Done:  E(UB3LYP) =  -279.654026133     A.U. after   16 cycles
 SCF Done:  E(UB3LYP) =  -279.655991651     A.U. after   18 cycles
 SCF Done:  E(UB3LYP) =  -279.656230927     A.U. after   15 cycles
 SCF Done:  E(UB3LYP) =  -279.656306007     A.U. after   18 cycles
 SCF Done:  E(UB3LYP) =  -279.656328814     A.U. after   18 cycles
 SCF Done:  E(UB3LYP) =  -279.656335561     A.U. after   18 cycles
 SCF Done:  E(UB3LYP) =  -279.656336475     A.U. after   18 cycles
 Optimization completed.
    -- Stationary point found.
 Normal termination of Gaussian 09 at Mon Mar  5 20:33:27 2018.

 ----------------------------------------------------------------------
 #P Geom=AllCheck Guess=TCheck SCRF=Check GenChk UB3LYP/Aug-CC-pVDZ Fre
 q
 ----------------------------------------------------------------------

 1,2,3-Triazine-4-UB3LYP-aug-cc-pVDZ-Duplet
 ------------------------------------------
 Redundant internal coordinates taken from checkpoint file:
 1.chk,2,3-Triazine-4-UB3LYP-aug-cc-pVDZ-Duplet.chk
 Charge =  0 Multiplicity = 2

                         Standard orientation:
 ---------------------------------------------------------------------
 Center     Atomic      Atomic             Coordinates (Angstroms)
 Number     Number       Type             X           Y           Z
 ---------------------------------------------------------------------
      1          6           0        0.115149   -1.341103   -0.000017
      2          6           0        1.273823   -0.569330    0.000177
      3          6           0        1.001982    0.792082    0.000038
      4          1           0        1.791684    1.545871   -0.000072
      5          1           0        2.285431   -0.972477    0.000143
      6          7           0       -1.081060   -0.879224   -0.000351
      7          7           0       -1.289807    0.482792    0.000570
      8          7           0       -0.260967    1.273104   -0.000399
 ---------------------------------------------------------------------

 SCF Done:  E(UB3LYP) =  -279.656336475     A.U. after    1 cycles

 The electronic state is 2-A.
 Alpha  occ. eigenvalues --  -14.44330 -14.40820 -14.40481 -10.28176 -10.27629
 Alpha  occ. eigenvalues --  -10.26387  -1.09938  -0.94429  -0.87426  -0.73346
 Alpha  occ. eigenvalues --   -0.69694  -0.57915  -0.54350  -0.49326  -0.48342
 Alpha  occ. eigenvalues --   -0.41986  -0.36345  -0.35081  -0.34425  -0.30030
 Alpha  occ. eigenvalues --   -0.24952
 Alpha virt. eigenvalues --   -0.10229  -0.07412  -0.01926   0.00887   0.02631
 Alpha virt. eigenvalues --    0.03708   0.05068   0.05580   0.06646   0.06881
 Alpha virt. eigenvalues --    0.07832   0.08374   0.09051   0.09695   0.10729

  Beta  occ. eigenvalues --  -14.44063 -14.40774 -14.40240 -10.28099 -10.26311
  Beta  occ. eigenvalues --  -10.26248  -1.09501  -0.93829  -0.86656  -0.72762
  Beta  occ. eigenvalues --   -0.68380  -0.57011  -0.53455  -0.48532  -0.48094
  Beta  occ. eigenvalues --   -0.40749  -0.35780  -0.34227  -0.31666  -0.28904
  Beta virt. eigenvalues --   -0.12558  -0.10071  -0.06462  -0.01888   0.01009
  Beta virt. eigenvalues --    0.02834   0.03728   0.05219   0.05617   0.06833
  Beta virt. eigenvalues --    0.07326   0.07922   0.08484   0.09119   0.10193

 Mulliken atomic charges:
              1
     1  C   -0.314750
     2  C    1.268425
     3  C    0.523394
     4  H   -0.490756
     5  H   -0.481303
     6  N   -0.176325
     7  N   -0.249588
     8  N   -0.079098
 Sum of Mulliken atomic charges =   0.00000

 Dipole moment (field-independent basis, Debye):
    X=              4.3827    Y=             -0.2387    Z=              0.0001  Tot=              4.3892
 Quadrupole moment (field-independent basis, Debye-Ang):
   XX=            -33.3307   YY=            -37.2520   ZZ=            -33.9636
   XY=              0.7115   XZ=              0.0006   YZ=             -0.0004

  Exact polarizability:  64.372  -1.129  65.936   0.001  -0.001  33.899
 Approx polarizability: 116.848  -3.818 123.574   0.002  -0.004  51.345

                     1                      2                      3
                     A                      A                      A
 Frequencies --   300.5351               398.1688               573.0672
 Red. masses --     3.8433                 7.3131                10.4707
 Frc consts  --     0.2045                 0.6831                 2.0260
 IR Inten    --     0.1948                 1.8845                15.3331

                     4                      5                      6
                     A                      A                      A
 Frequencies --   667.7740               751.0377               786.2654
 Red. masses --     9.2958                 5.7834                11.2685
 Frc consts  --     2.4423                 1.9220                 4.1045
 IR Inten    --     7.1561                 3.5494                42.8295

                     7                      8                      9
                     A                      A                      A
 Frequencies --   822.3428               967.1950               985.6446
 Red. masses --     1.3107                 8.8906                 1.3924
 Frc consts  --     0.5222                 4.9001                 0.7970
 IR Inten    --    13.5862                43.9425                 0.0405

                    10                     11                     12
                     A                      A                      A
 Frequencies --  1057.7309              1133.9722              1168.1545
 Red. masses --     2.7987                 2.6417                 1.6610
 Frc consts  --     1.8448                 2.0014                 1.3355
 IR Inten    --     3.2257                 3.4772                 3.7166

                    13                     14                     15
                     A                      A                      A
 Frequencies --  1283.9294              1420.2990              1503.9253
 Red. masses --     6.4609                 1.9078                 5.4098
 Frc consts  --     6.2751                 2.2674                 7.2092
 IR Inten    --     1.1061                 5.1262                61.9880

                    16                     17                     18
                     A                      A                      A
 Frequencies --  1621.6202              3180.2437              3216.2533
 Red. masses --     8.9400                 1.0903                 1.0963
 Frc consts  --    13.8512                 6.4968                 6.6816
 IR Inten    --    10.2118                 2.5383                 1.9008

 - Thermochemistry -
 -------------------
 Temperature   298.150 Kelvin.  Pressure   1.00000 Atm.
 Atom     1 has atomic number  6 and mass  12.00000

 Molecular mass:    80.02487 amu.
 Principal axes and moments of inertia in atomic units:
                           1         2         3
     Eigenvalues --   261.04431 287.93627 548.98052
           X            0.99710   0.07612   0.00000
           Y           -0.07612   0.99710   0.00000
           Z            0.00000   0.00000   1.00000
 This molecule is an asymmetric top.
 Rotational symmetry number  1.
 Rotational temperatures (Kelvin)      0.33180     0.30081     0.15777
 Rotational constants (GHZ):           6.91354     6.26785     3.28744
 Zero-point vibrational energy     130621.2 (Joules/Mol)
                                   31.21922 (Kcal/Mol)
 Warning -- explicit consideration of   3 degrees of freedom as
           vibrations may cause significant error
 Vibrational temperatures:    432.40   572.88   824.51   960.78  1080.57
          (Kelvin)           1131.26  1183.17  1391.58  1418.12  1521.84
                             1631.53  1680.71  1847.29  2043.49  2163.81
                             2333.15  4575.66  4627.47

 Zero-point correction=                           0.049751 (Hartree/Particle)
 Thermal correction to Energy=                    0.054042
 Thermal correction to Enthalpy=                  0.054986
 Thermal correction to Gibbs Free Energy=         0.021731
 Sum of electronic and zero-point Energies=           -279.606585
 Sum of electronic and thermal Energies=              -279.602295
 Sum of electronic and thermal Enthalpies=            -279.601350
 Sum of electronic and thermal Free Energies=         -279.634605

                     E (Thermal)             CV                S
                      KCal/Mol        Cal/Mol-Kelvin    Cal/Mol-Kelvin
 Total                   33.912             15.095             69.991
 Electronic               0.000              0.000              1.377
 Translational            0.889              2.981             39.054
 Rotational               0.889              2.981             25.226
 Vibrational             32.134              9.134              4.334
 Vibration     1          0.693              1.673              1.414
 Vibration     2          0.764              1.474              0.969
 Vibration     3          0.929              1.090              0.498

 Optimization completed.
    -- Stationary point found.
 Normal termination of Gaussian 09 at Mon Mar  5 20:35:03 2018.
