 Gaussian 09, Revision B.01,
 Gaussian 09:  EM64L-G09RevB.01 12-Aug-2010

 -------------------------------------------------
 #p Temperature=298.15 opt freq UB3LYP/aug-cc-pVDZ
 -------------------------------------------------

 ------------------------------------------
 1,2,4-Triazine-5-UB3LYP-aug-cc-pVDZ-Duplet
 ------------------------------------------
 Symbolic Z-matrix:
 Charge =  0 Multiplicity = 2

 SCF Done:  E(UB3LYP) =  -279.654206285     A.U. after   18 cycles
 SCF Done:  E(UB3LYP) =  -279.683400835     A.U. after   16 cycles
 SCF Done:  E(UB3LYP) =  -279.685463606     A.U. after   16 cycles
 SCF Done:  E(UB3LYP) =  -279.685520982     A.U. after   18 cycles
 SCF Done:  E(UB3LYP) =  -279.685591419     A.U. after   15 cycles
 SCF Done:  E(UB3LYP) =  -279.685618100     A.U. after   14 cycles
 SCF Done:  E(UB3LYP) =  -279.685618948     A.U. after   12 cycles
 Optimization completed.
    -- Stationary point found.
 Normal termination of Gaussian 09 at Mon Mar  5 21:24:38 2018.

 ----------------------------------------------------------------------
 #P Geom=AllCheck Guess=TCheck SCRF=Check GenChk UB3LYP/Aug-CC-pVDZ Fre
 q
 ----------------------------------------------------------------------

 1,2,4-Triazine-5-UB3LYP-aug-cc-pVDZ-Duplet
 ------------------------------------------
 Redundant internal coordinates taken from checkpoint file:
 1.chk,2,4-Triazine-5-UB3LYP-aug-cc-pVDZ-Duplet.chk
 Charge =  0 Multiplicity = 2

                         Standard orientation:
 ---------------------------------------------------------------------
 Center     Atomic      Atomic             Coordinates (Angstroms)
 Number     Number       Type             X           Y           Z
 ---------------------------------------------------------------------
      1          6           0        0.346557    1.321883    0.000147
      2          6           0        1.323123    0.310977   -0.000323
      3          1           0        2.396516    0.488848    0.000508
      4          6           0       -1.257737   -0.258956   -0.000116
      5          1           0       -2.313731   -0.525695   -0.000054
      6          7           0       -0.908347    1.046093    0.000029
      7          7           0       -0.372975   -1.254544    0.000086
      8          7           0        0.916401   -0.963917    0.000070
 ---------------------------------------------------------------------

 SCF Done:  E(UB3LYP) =  -279.685618948     A.U. after    1 cycles

 The electronic state is 2-A.
 Alpha  occ. eigenvalues --  -14.41899 -14.40516 -14.39753 -10.30117 -10.27532
 Alpha  occ. eigenvalues --  -10.27483  -1.08094  -0.97745  -0.87268  -0.72162
 Alpha  occ. eigenvalues --   -0.70679  -0.58208  -0.54565  -0.51347  -0.48372
 Alpha  occ. eigenvalues --   -0.38214  -0.37706  -0.36395  -0.33275  -0.32712
 Alpha  occ. eigenvalues --   -0.23701
 Alpha virt. eigenvalues --   -0.09678  -0.07377  -0.00796   0.00494   0.03387
 Alpha virt. eigenvalues --    0.03918   0.04087   0.05300   0.06174   0.07347
 Alpha virt. eigenvalues --    0.08548   0.09007   0.09619   0.09916   0.10117

  Beta  occ. eigenvalues --  -14.41666 -14.40443 -14.39387 -10.29952 -10.27365
  Beta  occ. eigenvalues --  -10.26272  -1.07738  -0.97002  -0.86719  -0.71579
  Beta  occ. eigenvalues --   -0.69177  -0.57214  -0.53459  -0.51024  -0.48127
  Beta  occ. eigenvalues --   -0.37793  -0.35982  -0.34929  -0.32929  -0.28692
  Beta virt. eigenvalues --   -0.12103  -0.09225  -0.06657  -0.00734   0.00534
  Beta virt. eigenvalues --    0.03678   0.03946   0.04120   0.05518   0.06384
  Beta virt. eigenvalues --    0.07408   0.08737   0.09034   0.09654   0.10230

 Mulliken atomic charges:
              1
     1  C   -0.296681
     2  C    0.898987
     3  H   -0.321820
     4  C    0.546602
     5  H   -0.339696
     6  N   -0.077784
     7  N   -0.130414
     8  N   -0.279193
 Sum of Mulliken atomic charges =   0.00000

 Dipole moment (field-independent basis, Debye):
    X=              0.0085    Y=              0.8287    Z=             -0.0004  Tot=              0.8287
 Quadrupole moment (field-independent basis, Debye-Ang):
   XX=            -29.0524   YY=            -41.8133   ZZ=            -33.7488
   XY=              3.4896   XZ=              0.0012   YZ=              0.0003

  Exact polarizability:  66.480   3.980  67.294  -0.001   0.000  33.704
 Approx polarizability: 115.636   6.166 132.542  -0.004  -0.003  50.584

                     1                      2                      3
                     A                      A                      A
 Frequencies --   326.9130               406.2691               598.8184
 Red. masses --     3.2080                11.5666                11.9153
 Frc consts  --     0.2020                 1.1248                 2.5174
 IR Inten    --    31.6403                 0.0172                19.1884

                     4                      5                      6
                     A                      A                      A
 Frequencies --   716.3995               755.1234               897.5048
 Red. masses --     9.0932                 7.2652                 1.3362
 Frc consts  --     2.7496                 2.4408                 0.6342
 IR Inten    --     2.4135                 0.8791                 5.0379

                     7                      8                      9
                     A                      A                      A
 Frequencies --   973.1455               979.5912              1031.1724
 Red. masses --     1.2974                11.0342                 9.1045
 Frc consts  --     0.7239                 6.2385                 5.7039
 IR Inten    --     0.1365                33.6531                 9.4049

                    10                     11                     12
                     A                      A                      A
 Frequencies --  1082.9981              1164.3703              1249.5653
 Red. masses --     2.3226                 8.6263                 6.5036
 Frc consts  --     1.6050                 6.8906                 5.9830
 IR Inten    --    59.6435                23.6542                59.4556

                    13                     14                     15
                     A                      A                      A
 Frequencies --  1300.7313              1417.8070              1460.5690
 Red. masses --     1.3549                 1.8192                 4.0549
 Frc consts  --     1.3506                 2.1546                 5.0966
 IR Inten    --     9.4132                 5.7889                12.7463

                    16                     17                     18
                     A                      A                      A
 Frequencies --  1660.5092              3213.5340              3224.8780
 Red. masses --    10.8190                 1.0935                 1.0939
 Frc consts  --    17.5760                 6.6531                 6.7030
 IR Inten    --    29.9791                 6.9219                 1.1589

 - Thermochemistry -
 -------------------
 Temperature   298.150 Kelvin.  Pressure   1.00000 Atm.
 Atom     1 has atomic number  6 and mass  12.00000

 Molecular mass:    80.02487 amu.
 Principal axes and moments of inertia in atomic units:
                           1         2         3
     Eigenvalues --   259.73014 282.01265 541.74277
           X            0.90804   0.41888   0.00002
           Y           -0.41888   0.90804   0.00000
           Z           -0.00001  -0.00001   1.00000
 This molecule is an asymmetric top.
 Rotational symmetry number  1.
 Rotational temperatures (Kelvin)      0.33348     0.30713     0.15988
 Rotational constants (GHZ):           6.94852     6.39950     3.33136
 Zero-point vibrational energy     134340.0 (Joules/Mol)
                                   32.10804 (Kcal/Mol)
 Warning -- explicit consideration of   3 degrees of freedom as
           vibrations may cause significant error
 Vibrational temperatures:    470.35   584.53   861.56  1030.74  1086.45
          (Kelvin)           1291.31  1400.14  1409.41  1483.63  1558.19
                             1675.27  1797.84  1871.46  2039.91  2101.43
                             2389.10  4623.55  4639.87

 Zero-point correction=                           0.051167 (Hartree/Particle)
 Thermal correction to Energy=                    0.055304
 Thermal correction to Enthalpy=                  0.056248
 Thermal correction to Gibbs Free Energy=         0.023245
 Sum of electronic and zero-point Energies=           -279.634452
 Sum of electronic and thermal Energies=              -279.630315
 Sum of electronic and thermal Enthalpies=            -279.629371
 Sum of electronic and thermal Free Energies=         -279.662374

                     E (Thermal)             CV                S
                      KCal/Mol        Cal/Mol-Kelvin    Cal/Mol-Kelvin
 Total                   34.704             14.330             69.461
 Electronic               0.000              0.000              1.377
 Translational            0.889              2.981             39.054
 Rotational               0.889              2.981             25.187
 Vibrational             32.926              8.368              3.843
 Vibration     1          0.711              1.622              1.275
 Vibration     2          0.771              1.457              0.940
 Vibration     3          0.957              1.034              0.452

 Optimization completed.
    -- Stationary point found.
 Normal termination of Gaussian 09 at Mon Mar  5 21:26:11 2018.
