 Gaussian 09, Revision B.01,
 Gaussian 09:  EM64L-G09RevB.01 12-Aug-2010

 -------------------------------------------------
 #p Temperature=298.15 opt freq UB3LYP/aug-cc-pVDZ
 -------------------------------------------------

 ------------------------------------------
 1,2,3-Triazine-5-UB3LYP-aug-cc-pVDZ-Duplet
 ------------------------------------------
 Symbolic Z-matrix:
 Charge =  0 Multiplicity = 2

 SCF Done:  E(UB3LYP) =  -279.631650656     A.U. after   17 cycles
 SCF Done:  E(UB3LYP) =  -279.649868372     A.U. after   16 cycles
 SCF Done:  E(UB3LYP) =  -279.651279320     A.U. after   15 cycles
 SCF Done:  E(UB3LYP) =  -279.651334161     A.U. after   18 cycles
 SCF Done:  E(UB3LYP) =  -279.651338650     A.U. after   18 cycles
 Optimization completed.
    -- Stationary point found.
 Normal termination of Gaussian 09 at Mon Mar  5 20:48:50 2018.

 ----------------------------------------------------------------------
 #P Geom=AllCheck Guess=TCheck SCRF=Check GenChk UB3LYP/Aug-CC-pVDZ Fre
 q
 ----------------------------------------------------------------------

 1,2,3-Triazine-5-UB3LYP-aug-cc-pVDZ-Duplet
 ------------------------------------------
 Redundant internal coordinates taken from checkpoint file:
 1.chk,2,3-Triazine-5-UB3LYP-aug-cc-pVDZ-Duplet.chk
 Charge =  0 Multiplicity = 2

                         Standard orientation:
 ---------------------------------------------------------------------
 Center     Atomic      Atomic             Coordinates (Angstroms)
 Number     Number       Type             X           Y           Z
 ---------------------------------------------------------------------
      1          6           0        1.183280    0.679322   -0.000184
      2          6           0       -0.000059    1.375111    0.000092
      3          6           0       -1.183329    0.679274   -0.000021
      4          1           0        2.178311    1.123574    0.000345
      5          1           0       -2.178422    1.123411    0.000166
      6          7           0        0.000031   -1.302173    0.000087
      7          7           0       -1.149832   -0.681050   -0.000079
      8          7           0        1.149910   -0.680953    0.000016
 ---------------------------------------------------------------------

 SCF Done:  E(UB3LYP) =  -279.651338650     A.U. after    1 cycles

 The electronic state is 2-A.
 Alpha  occ. eigenvalues --  -14.43626 -14.41360 -14.41356 -10.27983 -10.27983
 Alpha  occ. eigenvalues --  -10.25952  -1.10734  -0.94519  -0.87231  -0.72170
 Alpha  occ. eigenvalues --   -0.70833  -0.57479  -0.55947  -0.48690  -0.47001
 Alpha  occ. eigenvalues --   -0.42882  -0.35773  -0.34735  -0.34472  -0.30479
 Alpha  occ. eigenvalues --   -0.25821
 Alpha virt. eigenvalues --   -0.09039  -0.08622  -0.01134   0.00447   0.03337
 Alpha virt. eigenvalues --    0.03694   0.04251   0.05673   0.07598   0.07619
 Alpha virt. eigenvalues --    0.07694   0.08860   0.09280   0.09820   0.10493

  Beta  occ. eigenvalues --  -14.43520 -14.41075 -14.41071 -10.27986 -10.27985
  Beta  occ. eigenvalues --  -10.24659  -1.10395  -0.93964  -0.86099  -0.71704
  Beta  occ. eigenvalues --   -0.69213  -0.56608  -0.55302  -0.48505  -0.46463
  Beta  occ. eigenvalues --   -0.41742  -0.35635  -0.34005  -0.29435  -0.29296
  Beta virt. eigenvalues --   -0.14599  -0.09059  -0.07735  -0.01047   0.00448
  Beta virt. eigenvalues --    0.03619   0.03778   0.04557   0.05709   0.07537
  Beta virt. eigenvalues --    0.07783   0.08110   0.08898   0.09379   0.10126

 Mulliken atomic charges:
              1
     1  C    0.775610
     2  C   -0.032901
     3  C    0.775614
     4  H   -0.442487
     5  H   -0.442477
     6  N   -0.182139
     7  N   -0.225609
     8  N   -0.225610
 Sum of Mulliken atomic charges =   0.00000

 Dipole moment (field-independent basis, Debye):
    X=             -0.0002    Y=              3.1661    Z=              0.0001  Tot=              3.1661
 Quadrupole moment (field-independent basis, Debye-Ang):
   XX=            -31.6896   YY=            -38.5161   ZZ=            -33.9904
   XY=              0.0005   XZ=              0.0000   YZ=              0.0007

  Exact polarizability:  65.325   0.000  73.933   0.000   0.000  33.947
 Approx polarizability: 117.248   0.000 153.744  -0.002   0.000  51.375

                     1                      2                      3
                     A                      A                      A
 Frequencies --   362.6430               366.8061               580.0570
 Red. masses --     4.7887                 4.4995                 9.0532
 Frc consts  --     0.3710                 0.3567                 1.7947
 IR Inten    --     6.9532                 0.0000                28.9420

                     4                      5                      6
                     A                      A                      A
 Frequencies --   681.8712               739.6574               891.1019
 Red. masses --     9.2786                 5.5838                 1.4227
 Frc consts  --     2.5418                 1.7999                 0.6656
 IR Inten    --    16.4469                 8.3723                 7.6732

                     7                      8                      9
                     A                      A                      A
 Frequencies --   956.5333              1008.3219              1034.3923
 Red. masses --     1.3541                10.4866                 7.7531
 Frc consts  --     0.7300                 6.2818                 4.8876
 IR Inten    --     0.0000                 1.9052                87.9976

                    10                     11                     12
                     A                      A                      A
 Frequencies --  1055.9343              1109.1428              1161.7494
 Red. masses --    12.7177                 2.1539                 3.1456
 Frc consts  --     8.3547                 1.5612                 2.5013
 IR Inten    --     4.3479                26.3048                 1.8117

                    13                     14                     15
                     A                      A                      A
 Frequencies --  1330.4338              1334.8126              1454.2128
 Red. masses --     3.5923                 1.5082                 2.7777
 Frc consts  --     3.7464                 1.5832                 3.4610
 IR Inten    --    15.4842                 2.6233                12.6493

                    16                     17                     18
                     A                      A                      A
 Frequencies --  1573.9544              3203.0285              3203.4847
 Red. masses --     8.9564                 1.0910                 1.0940
 Frc consts  --    13.0728                 6.5946                 6.6150
 IR Inten    --    47.7711                 1.6830                 0.4236

 - Thermochemistry -
 -------------------
 Temperature   298.150 Kelvin.  Pressure   1.00000 Atm.
 Atom     1 has atomic number  6 and mass  12.00000

 Molecular mass:    80.02487 amu.
 Principal axes and moments of inertia in atomic units:
                           1         2         3
     Eigenvalues --   260.61671 286.39827 547.01497
           X            1.00000   0.00003   0.00000
           Y           -0.00003   1.00000   0.00001
           Z            0.00000  -0.00001   1.00000
 This molecule is an asymmetric top.
 Rotational symmetry number  1.
 Rotational temperatures (Kelvin)      0.33234     0.30242     0.15834
 Rotational constants (GHZ):           6.92489     6.30151     3.29925
 Zero-point vibrational energy     131877.1 (Joules/Mol)
                                   31.51939 (Kcal/Mol)
 Warning -- explicit consideration of   3 degrees of freedom as
           vibrations may cause significant error
 Vibrational temperatures:    521.76   527.75   834.57   981.06  1064.20
          (Kelvin)           1282.10  1376.24  1450.75  1488.26  1519.25
                             1595.81  1671.50  1914.20  1920.50  2092.29
                             2264.57  4608.44  4609.09

 Zero-point correction=                           0.050229 (Hartree/Particle)
 Thermal correction to Energy=                    0.054411
 Thermal correction to Enthalpy=                  0.055356
 Thermal correction to Gibbs Free Energy=         0.022282
 Sum of electronic and zero-point Energies=           -279.601109
 Sum of electronic and thermal Energies=              -279.596927
 Sum of electronic and thermal Enthalpies=            -279.595983
 Sum of electronic and thermal Free Energies=         -279.629056

                     E (Thermal)             CV                S
                      KCal/Mol        Cal/Mol-Kelvin    Cal/Mol-Kelvin
 Total                   34.144             14.629             69.608
 Electronic               0.000              0.000              1.377
 Translational            0.889              2.981             39.054
 Rotational               0.889              2.981             25.216
 Vibrational             32.366              8.667              3.961
 Vibration     1          0.736              1.549              1.111
 Vibration     2          0.740              1.541              1.093
 Vibration     3          0.937              1.074              0.485

 Optimization completed.
    -- Stationary point found.
 Normal termination of Gaussian 09 at Mon Mar  5 20:50:23 2018.
