 Gaussian 09, Revision B.01,
 Gaussian 09:  EM64L-G09RevB.01 12-Aug-2010

 -------------------------------------------------
 #p Temperature=298.15 opt freq UB3LYP/aug-cc-pVDZ
 -------------------------------------------------

 -----------------------------------------------
 1,2,4-Triazine-5-N2+-UB3LYP-aug-cc-pVDZ-Triplet
 -----------------------------------------------
 Symbolic Z-matrix:
 Charge =  1 Multiplicity = 3

 SCF Done:  E(UB3LYP) =  -388.845429776     A.U. after   20 cycles
 SCF Done:  E(UB3LYP) =  -388.875868150     A.U. after   18 cycles
 SCF Done:  E(UB3LYP) =  -388.879937383     A.U. after   17 cycles
 SCF Done:  E(UB3LYP) =  -388.880615382     A.U. after   19 cycles
 SCF Done:  E(UB3LYP) =  -388.880736591     A.U. after   16 cycles
 SCF Done:  E(UB3LYP) =  -388.881005246     A.U. after   20 cycles
 SCF Done:  E(UB3LYP) =  -388.881014612     A.U. after   23 cycles
 SCF Done:  E(UB3LYP) =  -388.881016834     A.U. after   23 cycles
 SCF Done:  E(UB3LYP) =  -388.881017106     A.U. after   11 cycles
 Optimization completed.
    -- Stationary point found.
 Normal termination of Gaussian 09 at Thu Jan 20 02:11:28 2005.

 ----------------------------------------------------------------------
 #P Geom=AllCheck Guess=TCheck SCRF=Check GenChk UB3LYP/Aug-CC-pVDZ Fre
 q
 ----------------------------------------------------------------------

 1,2,4-Triazine-5-N2+-UB3LYP-aug-cc-pVDZ-Triplet
 -----------------------------------------------
 Redundant internal coordinates taken from checkpoint file:
 1.chk,2,4-Triazine-5-N2+-UB3LYP-aug-cc-pVDZ-Triplet.chk
 Charge =  1 Multiplicity = 3

                         Standard orientation:
 ---------------------------------------------------------------------
 Center     Atomic      Atomic             Coordinates (Angstroms)
 Number     Number       Type             X           Y           Z
 ---------------------------------------------------------------------
      1          6           0        0.528642   -0.007272   -0.000115
      2          6           0       -0.159142    1.260322   -0.000028
      3          7           0        1.872766   -0.051414    0.000073
      4          7           0        3.007668   -0.081090    0.000015
      5          1           0        0.319494    2.238667    0.000109
      6          6           0       -1.452900   -1.154698    0.000024
      7          1           0       -2.065732   -2.053063    0.000128
      8          7           0       -0.150772   -1.188495   -0.000055
      9          7           0       -2.090761    0.066669    0.000042
     10          7           0       -1.460810    1.143512   -0.000006
 ---------------------------------------------------------------------

 SCF Done:  E(UB3LYP) =  -388.881017106     A.U. after    1 cycles

 The electronic state is 3-A.
 Alpha  occ. eigenvalues --  -14.70845 -14.68035 -14.66398 -14.65369 -14.60147
 Alpha  occ. eigenvalues --  -10.54145 -10.51829 -10.50424  -1.36383  -1.33555
 Alpha  occ. eigenvalues --   -1.20472  -1.12307  -1.05377  -0.95326  -0.86958
 Alpha  occ. eigenvalues --   -0.82428  -0.76244  -0.74513  -0.71989  -0.70985
 Alpha  occ. eigenvalues --   -0.69227  -0.68919  -0.62197  -0.60789  -0.57747
 Alpha  occ. eigenvalues --   -0.55816  -0.50202  -0.41744
 Alpha virt. eigenvalues --   -0.29511  -0.29177  -0.25041  -0.15797  -0.13264
 Alpha virt. eigenvalues --   -0.12699  -0.11578  -0.11048  -0.10290  -0.09217
 Alpha virt. eigenvalues --   -0.07611  -0.06091  -0.05766  -0.05590  -0.04190

  Beta  occ. eigenvalues --  -14.70841 -14.67155 -14.65402 -14.63659 -14.59515
  Beta  occ. eigenvalues --  -10.53826 -10.51771 -10.50220  -1.35481  -1.31608
  Beta  occ. eigenvalues --   -1.19039  -1.10721  -1.03259  -0.93962  -0.85818
  Beta  occ. eigenvalues --   -0.81296  -0.74396  -0.72231  -0.71391  -0.68420
  Beta  occ. eigenvalues --   -0.68212  -0.67419  -0.58143  -0.57474  -0.53654
  Beta  occ. eigenvalues --   -0.53106
  Beta virt. eigenvalues --   -0.38259  -0.32846  -0.28444  -0.28316  -0.21324
  Beta virt. eigenvalues --   -0.15678  -0.12584  -0.11358  -0.10847  -0.10824
  Beta virt. eigenvalues --   -0.10116  -0.08881  -0.07295  -0.05938  -0.05498

 Mulliken atomic charges:
              1
     1  C    0.363266
     2  C    0.987562
     3  N    0.466983
     4  N   -0.460324
     5  H   -0.488478
     6  C    0.682061
     7  H   -0.354319
     8  N   -0.041168
     9  N   -0.009893
    10  N   -0.145691
 Sum of Mulliken atomic charges =   1.00000

 Dipole moment (field-independent basis, Debye):
    X=             -0.0916    Y=              0.7691    Z=              0.0002  Tot=              0.7745
 Quadrupole moment (field-independent basis, Debye-Ang):
   XX=            -29.3009   YY=            -32.8017   ZZ=            -41.5947
   XY=              5.8170   XZ=             -0.0002   YZ=             -0.0001

  Exact polarizability: 118.151   1.478  67.378   0.000   0.000  34.107
 Approx polarizability: 250.180  -6.683 124.012   0.000   0.000  51.854

                     1                      2                      3
                     A                      A                      A
 Frequencies --   147.4204               169.4783               307.7818
 Red. masses --     9.5154                 9.4504                12.0066
 Frc consts  --     0.1218                 0.1599                 0.6701
 IR Inten    --     0.5229                 1.1787                 0.5593

                     4                      5                      6
                     A                      A                      A
 Frequencies --   370.6209               444.5663               459.9182
 Red. masses --     4.5252                 5.2520                11.9364
 Frc consts  --     0.3662                 0.6116                 1.4876
 IR Inten    --     8.1588                13.6597                 5.7532

                     7                      8                      9
                     A                      A                      A
 Frequencies --   543.9061               638.9728               655.7106
 Red. masses --     9.9272                12.1072                 8.1812
 Frc consts  --     1.7303                 2.9125                 2.0725
 IR Inten    --     1.8952                 8.9468                 2.6151

                    10                     11                     12
                     A                      A                      A
 Frequencies --   748.0041               874.5685               896.1361
 Red. masses --     8.6644                 1.3500                 6.0049
 Frc consts  --     2.8562                 0.6084                 2.8412
 IR Inten    --    24.7125                15.8010                62.4631

                    13                     14                     15
                     A                      A                      A
 Frequencies --   942.7708               986.5744              1215.1121
 Red. masses --     1.3023                 5.1311                 1.7452
 Frc consts  --     0.6820                 2.9425                 1.5182
 IR Inten    --     2.9350               122.1886                41.4595

                    16                     17                     18
                     A                      A                      A
 Frequencies --  1247.9630              1301.9459              1354.8473
 Red. masses --     2.9891                 6.3511                 1.7516
 Frc consts  --     2.7428                 6.3428                 1.8944
 IR Inten    --    13.5727                 2.8951                 7.2530

                    19                     20                     21
                     A                      A                      A
 Frequencies --  1431.7815              1454.1267              1648.3699
 Red. masses --    10.1822                 3.1078                10.7444
 Frc consts  --    12.2983                 3.8717                17.2005
 IR Inten    --    12.8719                 1.0425               339.8128

                    22                     23                     24
                     A                      A                      A
 Frequencies --  2149.5829              3227.9203              3251.5867
 Red. masses --    13.9371                 1.0970                 1.0996
 Frc consts  --    37.9430                 6.7347                 6.8498
 IR Inten    --   298.4650                26.8023                14.4240

 - Thermochemistry -
 -------------------
 Temperature   298.150 Kelvin.  Pressure   1.00000 Atm.
 Atom     1 has atomic number  6 and mass  12.00000

 Molecular mass:   108.03102 amu.
 Principal axes and moments of inertia in atomic units:
                           1         2         3
     Eigenvalues --   294.722341073.719251368.44159
           X            0.99975   0.02256   0.00000
           Y           -0.02256   0.99975   0.00000
           Z            0.00000   0.00000   1.00000
 This molecule is an asymmetric top.
 Rotational symmetry number  1.
 Rotational temperatures (Kelvin)      0.29388     0.08067     0.06329
 Rotational constants (GHZ):           6.12353     1.68083     1.31883
 Zero-point vibrational energy     158323.8 (Joules/Mol)
                                   37.84029 (Kcal/Mol)
 Warning -- explicit consideration of   7 degrees of freedom as
           vibrations may cause significant error
 Vibrational temperatures:    212.10   243.84   442.83   533.24   639.63
          (Kelvin)            661.72   782.56   919.34   943.42  1076.21
                             1258.31  1289.34  1356.44  1419.46  1748.27
                             1795.54  1873.21  1949.32  2060.01  2092.16
                             2371.63  3092.77  4644.25  4678.30

 Zero-point correction=                           0.060302 (Hartree/Particle)
 Thermal correction to Energy=                    0.066490
 Thermal correction to Enthalpy=                  0.067434
 Thermal correction to Gibbs Free Energy=         0.028900
 Sum of electronic and zero-point Energies=           -388.820715
 Sum of electronic and thermal Energies=              -388.814527
 Sum of electronic and thermal Enthalpies=            -388.813583
 Sum of electronic and thermal Free Energies=         -388.852117

                     E (Thermal)             CV                S
                      KCal/Mol        Cal/Mol-Kelvin    Cal/Mol-Kelvin
 Total                   41.723             22.163             81.103
 Electronic               0.000              0.000              2.183
 Translational            0.889              2.981             39.948
 Rotational               0.889              2.981             27.562
 Vibrational             39.946             16.201             11.409
 Vibration     1          0.617              1.905              2.705
 Vibration     2          0.625              1.880              2.441
 Vibration     3          0.698              1.659              1.374
 Vibration     4          0.743              1.533              1.077
 Vibration     5          0.804              1.373              0.812
 Vibration     6          0.818              1.339              0.766
 Vibration     7          0.899              1.153              0.557

 Optimization completed.
    -- Stationary point found.
 Normal termination of Gaussian 09 at Thu Jan 20 02:15:56 2005.
