 Gaussian 09, Revision B.01,
 Gaussian 09:  EM64L-G09RevB.01 12-Aug-2010

 -------------------------------------------------
 #p Temperature=298.15 opt freq UB3LYP/aug-cc-pVDZ
 -------------------------------------------------

 --------------------------------------------
 1,2,3-Triazine-5+-UB3LYP-aug-cc-pVDZ-Triplet
 --------------------------------------------
 Symbolic Z-matrix:
 Charge =  1 Multiplicity = 3

 SCF Done:  E(UB3LYP) =  -279.246920771     A.U. after   21 cycles
 SCF Done:  E(UB3LYP) =  -279.277591629     A.U. after   17 cycles
 SCF Done:  E(UB3LYP) =  -279.283806767     A.U. after   15 cycles
 SCF Done:  E(UB3LYP) =  -279.284154478     A.U. after   18 cycles
 SCF Done:  E(UB3LYP) =  -279.284159561     A.U. after   18 cycles
 Optimization completed.
    -- Stationary point found.
 Normal termination of Gaussian 09 at Thu Jan 20 01:23:06 2005.

 ----------------------------------------------------------------------
 #P Geom=AllCheck Guess=TCheck SCRF=Check GenChk UB3LYP/Aug-CC-pVDZ Fre
 q
 ----------------------------------------------------------------------

 1,2,3-Triazine-5+-UB3LYP-aug-cc-pVDZ-Triplet
 --------------------------------------------
 Redundant internal coordinates taken from checkpoint file:
 1.chk,2,3-Triazine-5+-UB3LYP-aug-cc-pVDZ-Triplet.chk
 Charge =  1 Multiplicity = 3

                         Standard orientation:
 ---------------------------------------------------------------------
 Center     Atomic      Atomic             Coordinates (Angstroms)
 Number     Number       Type             X           Y           Z
 ---------------------------------------------------------------------
      1          6           0        1.191491    0.684141   -0.000050
      2          6           0        0.000114    1.392835    0.000007
      3          6           0       -1.191359    0.684351   -0.000004
      4          1           0        2.200394    1.106646    0.000058
      5          1           0       -2.200258    1.106945    0.000109
      6          7           0       -0.000103   -1.390374   -0.000010
      7          7           0       -1.078419   -0.646281   -0.000016
      8          7           0        1.078291   -0.646423    0.000042
 ---------------------------------------------------------------------

 SCF Done:  E(UB3LYP) =  -279.284159561     A.U. after    1 cycles

 The electronic state is 3-A.
 Alpha  occ. eigenvalues --  -14.70763 -14.70659 -14.70651 -10.52918 -10.52917
 Alpha  occ. eigenvalues --  -10.51305  -1.38721  -1.21107  -1.13610  -0.97403
 Alpha  occ. eigenvalues --   -0.97148  -0.82875  -0.80523  -0.74554  -0.71935
 Alpha  occ. eigenvalues --   -0.69752  -0.62036  -0.60164  -0.58243  -0.57243
 Alpha  occ. eigenvalues --   -0.51659
 Alpha virt. eigenvalues --   -0.33782  -0.32583  -0.16371  -0.16129  -0.13582
 Alpha virt. eigenvalues --   -0.12341  -0.10675  -0.10640  -0.10182  -0.08500
 Alpha virt. eigenvalues --   -0.06630  -0.05080  -0.04816  -0.04452  -0.03787

  Beta  occ. eigenvalues --  -14.70821 -14.69266 -14.69264 -10.52960 -10.52959
  Beta  occ. eigenvalues --  -10.49622  -1.37107  -1.18408  -1.12315  -0.96188
  Beta  occ. eigenvalues --   -0.93916  -0.81140  -0.78949  -0.73888  -0.69941
  Beta  occ. eigenvalues --   -0.64802  -0.60764  -0.57575  -0.54380
  Beta virt. eigenvalues --   -0.43912  -0.36089  -0.32470  -0.32205  -0.15995
  Beta virt. eigenvalues --   -0.15042  -0.13414  -0.12130  -0.10671  -0.09915
  Beta virt. eigenvalues --   -0.09624  -0.08059  -0.06687  -0.04946  -0.04398

 Mulliken atomic charges:
              1
     1  C    0.817121
     2  C    0.086958
     3  C    0.817072
     4  H   -0.311103
     5  H   -0.311067
     6  N    0.008876
     7  N   -0.053966
     8  N   -0.053892
 Sum of Mulliken atomic charges =   1.00000

 Dipole moment (field-independent basis, Debye):
    X=              0.0005    Y=              2.9132    Z=              0.0001  Tot=              2.9132
 Quadrupole moment (field-independent basis, Debye-Ang):
   XX=            -18.1953   YY=            -28.1961   ZZ=            -31.1228
   XY=             -0.0008   XZ=             -0.0002   YZ=              0.0002

  Exact polarizability:  73.187   0.000  58.862   0.000   0.000  27.767
 Approx polarizability: 165.611   0.001 130.759   0.001   0.000  42.199

                     1                      2                      3
                     A                      A                      A
 Frequencies --   198.2706               391.1172               415.0036
 Red. masses --    12.1238                 4.7469                 4.7959
 Frc consts  --     0.2808                 0.4278                 0.4867
 IR Inten    --   235.0193                16.4272                 0.0000

                     4                      5                      6
                     A                      A                      A
 Frequencies --   596.3889               649.6698               730.4866
 Red. masses --     4.2786                 9.1240                10.1615
 Frc consts  --     0.8966                 2.2689                 3.1947
 IR Inten    --    15.9383                 5.2362                15.2624

                     7                      8                      9
                     A                      A                      A
 Frequencies --   884.9946               901.7057               979.4272
 Red. masses --     1.5416                 1.3439                 7.2137
 Frc consts  --     0.7114                 0.6438                 4.0771
 IR Inten    --    19.3332                 0.0003                11.9021

                    10                     11                     12
                     A                      A                      A
 Frequencies --  1054.3353              1091.1951              1145.8935
 Red. masses --     7.5890                 1.9623                 2.8078
 Frc consts  --     4.9704                 1.3767                 2.1722
 IR Inten    --     1.5611                13.6715                13.6697

                    13                     14                     15
                     A                      A                      A
 Frequencies --  1276.0914              1376.0113              1430.3063
 Red. masses --     1.5628                 2.1446                12.6324
 Frc consts  --     1.4994                 2.3924                15.2263
 IR Inten    --    12.7478                19.2690                32.6266

                    16                     17                     18
                     A                      A                      A
 Frequencies --  1485.7213              3178.5512              3180.0723
 Red. masses --     9.3777                 1.0945                 1.0948
 Frc consts  --    12.1961                 6.5150                 6.5229
 IR Inten    --   122.4505                34.8352               129.9765

 - Thermochemistry -
 -------------------
 Temperature   298.150 Kelvin.  Pressure   1.00000 Atm.
 Atom     1 has atomic number  6 and mass  12.00000

 Molecular mass:    80.02487 amu.
 Principal axes and moments of inertia in atomic units:
                           1         2         3
     Eigenvalues --   270.31172 272.80578 543.11751
           X            1.00000  -0.00072   0.00000
           Y            0.00072   1.00000   0.00000
           Z            0.00000   0.00000   1.00000
 This molecule is an asymmetric top.
 Rotational symmetry number  1.
 Rotational temperatures (Kelvin)      0.32042     0.31749     0.15948
 Rotational constants (GHZ):           6.67652     6.61548     3.32293
 Zero-point vibrational energy     125400.0 (Joules/Mol)
                                   29.97132 (Kcal/Mol)
 Warning -- explicit consideration of   4 degrees of freedom as
           vibrations may cause significant error
 Vibrational temperatures:    285.27   562.73   597.10   858.07   934.73
          (Kelvin)           1051.01  1273.31  1297.35  1409.18  1516.95
                             1569.98  1648.68  1836.01  1979.77  2057.89
                             2137.62  4573.22  4575.41

 Zero-point correction=                           0.047762 (Hartree/Particle)
 Thermal correction to Energy=                    0.052428
 Thermal correction to Enthalpy=                  0.053373
 Thermal correction to Gibbs Free Energy=         0.019046
 Sum of electronic and zero-point Energies=           -279.236397
 Sum of electronic and thermal Energies=              -279.231731
 Sum of electronic and thermal Enthalpies=            -279.230787
 Sum of electronic and thermal Free Energies=         -279.265113

                     E (Thermal)             CV                S
                      KCal/Mol        Cal/Mol-Kelvin    Cal/Mol-Kelvin
 Total                   32.899             16.191             72.245
 Electronic               0.000              0.000              2.183
 Translational            0.889              2.981             39.054
 Rotational               0.889              2.981             25.197
 Vibrational             31.122             10.229              5.812
 Vibration     1          0.637              1.842              2.149
 Vibration     2          0.759              1.489              0.996
 Vibration     3          0.778              1.438              0.909
 Vibration     4          0.954              1.039              0.456

 Optimization completed.
    -- Stationary point found.
 Normal termination of Gaussian 09 at Thu Jan 20 01:24:37 2005.
