 Gaussian 09, Revision B.01,
 Gaussian 09:  EM64L-G09RevB.01 12-Aug-2010

 -------------------------------------------------
 #p Temperature=298.15 opt freq UB3LYP/aug-cc-pVDZ
 -------------------------------------------------

 -----------------------------------------------
 1,2,4-Triazine-6-N2+-UB3LYP-aug-cc-pVDZ-Singlet
 -----------------------------------------------
 Symbolic Z-matrix:
 Charge =  1 Multiplicity = 1

 SCF Done:  E(UB3LYP) =  -388.898910683     A.U. after   16 cycles
 SCF Done:  E(UB3LYP) =  -388.920639091     A.U. after   13 cycles
 SCF Done:  E(UB3LYP) =  -388.921457241     A.U. after   16 cycles
 SCF Done:  E(UB3LYP) =  -388.921500980     A.U. after   11 cycles
 SCF Done:  E(UB3LYP) =  -388.921495060     A.U. after   16 cycles
 SCF Done:  E(UB3LYP) =  -388.921514446     A.U. after   16 cycles
 SCF Done:  E(UB3LYP) =  -388.921516098     A.U. after   10 cycles
 SCF Done:  E(UB3LYP) =  -388.921516449     A.U. after   16 cycles
 Optimization completed.
    -- Stationary point found.
 Normal termination of Gaussian 09 at Mon Mar  5 21:27:43 2018.

 ----------------------------------------------------------------------
 #P Geom=AllCheck Guess=TCheck SCRF=Check GenChk UB3LYP/Aug-CC-pVDZ Fre
 q
 ----------------------------------------------------------------------

 1,2,4-Triazine-6-N2+-UB3LYP-aug-cc-pVDZ-Singlet
 -----------------------------------------------
 Redundant internal coordinates taken from checkpoint file:
 1.chk,2,4-Triazine-6-N2+-UB3LYP-aug-cc-pVDZ-Singlet.chk
 Charge =  1 Multiplicity = 1

                         Standard orientation:
 ---------------------------------------------------------------------
 Center     Atomic      Atomic             Coordinates (Angstroms)
 Number     Number       Type             X           Y           Z
 ---------------------------------------------------------------------
      1          6           0        0.492583    0.021275   -0.000302
      2          6           0       -0.204378    1.238138   -0.000317
      3          7           0        1.895907   -0.007735    0.000000
      4          7           0        3.005978   -0.025132    0.000268
      5          1           0        0.278178    2.218593    0.000228
      6          7           0       -0.068844   -1.199736   -0.000141
      7          7           0       -1.529163    1.160000    0.000126
      8          7           0       -1.375775   -1.243111    0.000014
      9          6           0       -2.059654   -0.067665    0.000198
     10          1           0       -3.146205   -0.159076    0.000425
 ---------------------------------------------------------------------

 SCF Done:  E(UB3LYP) =  -388.921516449     A.U. after    1 cycles

 The electronic state is 1-A.
 Alpha  occ. eigenvalues --  -14.76944 -14.74375 -14.63383 -14.60587 -14.58599
 Alpha  occ. eigenvalues --  -10.54807 -10.50211 -10.49306  -1.42838  -1.29171
 Alpha  occ. eigenvalues --   -1.17724  -1.13950  -1.00398  -0.94209  -0.86827
 Alpha  occ. eigenvalues --   -0.80707  -0.77739  -0.75347  -0.74041  -0.73791
 Alpha  occ. eigenvalues --   -0.68002  -0.66163  -0.57900  -0.57712  -0.54488
 Alpha  occ. eigenvalues --   -0.53846  -0.46497
 Alpha virt. eigenvalues --   -0.34820  -0.32490  -0.29828  -0.23864  -0.17210
 Alpha virt. eigenvalues --   -0.13089  -0.12244  -0.11934  -0.11040  -0.10124
 Alpha virt. eigenvalues --   -0.09677  -0.07550  -0.07078  -0.06372  -0.05882

  Beta  occ. eigenvalues --  -14.76944 -14.74375 -14.63383 -14.60587 -14.58599
  Beta  occ. eigenvalues --  -10.54807 -10.50211 -10.49306  -1.42838  -1.29171
  Beta  occ. eigenvalues --   -1.17724  -1.13950  -1.00398  -0.94209  -0.86827
  Beta  occ. eigenvalues --   -0.80707  -0.77739  -0.75347  -0.74041  -0.73791
  Beta  occ. eigenvalues --   -0.68002  -0.66163  -0.57900  -0.57712  -0.54488
  Beta  occ. eigenvalues --   -0.53846  -0.46497
  Beta virt. eigenvalues --   -0.34820  -0.32490  -0.29828  -0.23864  -0.17210
  Beta virt. eigenvalues --   -0.13089  -0.12244  -0.11934  -0.11040  -0.10124
  Beta virt. eigenvalues --   -0.09677  -0.07550  -0.07078  -0.06372  -0.05882

 Mulliken atomic charges:
              1
     1  C    0.770696
     2  C    0.652132
     3  N    0.591551
     4  N   -0.479766
     5  H   -0.478667
     6  N   -0.177973
     7  N   -0.128904
     8  N   -0.125760
     9  C    0.671468
    10  H   -0.294778
 Sum of Mulliken atomic charges =   1.00000

 Dipole moment (field-independent basis, Debye):
    X=              2.7302    Y=              2.4950    Z=              0.0000  Tot=              3.6985
 Quadrupole moment (field-independent basis, Debye-Ang):
   XX=            -20.9853   YY=            -41.9060   ZZ=            -40.7105
   XY=              1.9963   XZ=             -0.0004   YZ=             -0.0002

  Exact polarizability: 106.601   1.535  59.802  -0.001   0.000  34.700
 Approx polarizability: 211.494   4.040 109.565  -0.004  -0.003  54.350

                     1                      2                      3
                     A                      A                      A
 Frequencies --   133.4051               158.0600               291.8405
 Red. masses --     4.8479                 9.8593                 4.8135
 Frc consts  --     0.0508                 0.1451                 0.2415
 IR Inten    --     0.3823                 0.4524                 7.2532

                     4                      5                      6
                     A                      A                      A
 Frequencies --   366.6506               474.6879               525.0094
 Red. masses --     6.8744                10.1996                10.9022
 Frc consts  --     0.5445                 1.3541                 1.7705
 IR Inten    --    19.2361                 8.9591                 3.7487

                     7                      8                      9
                     A                      A                      A
 Frequencies --   550.2434               634.4211               745.9424
 Red. masses --    10.0443                11.1836                 3.1222
 Frc consts  --     1.7918                 2.6521                 1.0236
 IR Inten    --     0.7307                 2.0144                10.9405

                    10                     11                     12
                     A                      A                      A
 Frequencies --   794.2056               939.8081              1005.8568
 Red. masses --    10.9098                 1.5939                 5.6849
 Frc consts  --     4.0545                 0.8295                 3.3888
 IR Inten    --    24.0891                 4.5612               131.2546

                    13                     14                     15
                     A                      A                      A
 Frequencies --  1023.0783              1052.4234              1130.4580
 Red. masses --     1.5205                 9.7721                 4.9231
 Frc consts  --     0.9377                 6.3771                 3.7068
 IR Inten    --     0.0568                19.5834                 3.0730

                    16                     17                     18
                     A                      A                      A
 Frequencies --  1163.8956              1216.9477              1369.2183
 Red. masses --     7.3128                 2.0987                 1.4836
 Frc consts  --     5.8366                 1.8313                 1.6387
 IR Inten    --     0.5432                14.2063                 8.9392

                    19                     20                     21
                     A                      A                      A
 Frequencies --  1443.5634              1519.5727              1546.7295
 Red. masses --     2.2551                 7.6689                 5.6113
 Frc consts  --     2.7688                10.4334                 7.9094
 IR Inten    --     8.8868               152.5629                19.8186

                    22                     23                     24
                     A                      A                      A
 Frequencies --  2363.4041              3184.5333              3221.4254
 Red. masses --    13.9822                 1.0973                 1.0967
 Frc consts  --    46.0151                 6.5562                 6.7057
 IR Inten    --   100.5929                 8.2728                 7.2167

 - Thermochemistry -
 -------------------
 Temperature   298.150 Kelvin.  Pressure   1.00000 Atm.
 Atom     1 has atomic number  6 and mass  12.00000

 Molecular mass:   108.03102 amu.
 Principal axes and moments of inertia in atomic units:
                           1         2         3
     Eigenvalues --   300.132071073.039321373.17135
           X            0.99999   0.00487   0.00000
           Y           -0.00487   0.99999   0.00001
           Z            0.00000  -0.00001   1.00000
 This molecule is an asymmetric top.
 Rotational symmetry number  1.
 Rotational temperatures (Kelvin)      0.28859     0.08072     0.06308
 Rotational constants (GHZ):           6.01316     1.68190     1.31429
 Zero-point vibrational energy     160630.8 (Joules/Mol)
                                   38.39169 (Kcal/Mol)
 Warning -- explicit consideration of   7 degrees of freedom as
           vibrations may cause significant error
 Vibrational temperatures:    191.94   227.41   419.89   527.53   682.97
          (Kelvin)            755.37   791.68   912.79  1073.24  1142.68
                             1352.17  1447.20  1471.98  1514.20  1626.47
                             1674.58  1750.91  1970.00  2076.96  2186.32
                             2225.40  3400.41  4581.83  4634.91

 Zero-point correction=                           0.061181 (Hartree/Particle)
 Thermal correction to Energy=                    0.067273
 Thermal correction to Enthalpy=                  0.068217
 Thermal correction to Gibbs Free Energy=         0.030750
 Sum of electronic and zero-point Energies=           -388.860335
 Sum of electronic and thermal Energies=              -388.854244
 Sum of electronic and thermal Enthalpies=            -388.853299
 Sum of electronic and thermal Free Energies=         -388.890766

                     E (Thermal)             CV                S
                      KCal/Mol        Cal/Mol-Kelvin    Cal/Mol-Kelvin
 Total                   42.214             21.527             78.856
 Electronic               0.000              0.000              0.000
 Translational            0.889              2.981             39.948
 Rotational               0.889              2.981             27.583
 Vibrational             40.437             15.566             11.324
 Vibration     1          0.613              1.920              2.896
 Vibration     2          0.621              1.894              2.573
 Vibration     3          0.687              1.689              1.463
 Vibration     4          0.740              1.541              1.094
 Vibration     5          0.831              1.306              0.725
 Vibration     6          0.880              1.195              0.598
 Vibration     7          0.906              1.139              0.544

 Optimization completed.
    -- Stationary point found.
 Normal termination of Gaussian 09 at Mon Mar  5 21:32:08 2018.
