 Gaussian 09, Revision B.01,
 Gaussian 09:  EM64L-G09RevB.01 12-Aug-2010

 -------------------------------------------------
 #p Temperature=298.15 opt freq UB3LYP/aug-cc-pVDZ
 -------------------------------------------------

 -----------------------------------------------
 1,2,4-Triazine-3-N2+-UB3LYP-aug-cc-pVDZ-Triplet
 -----------------------------------------------
 Symbolic Z-matrix:
 Charge =  1 Multiplicity = 3

 SCF Done:  E(UB3LYP) =  -388.825178782     A.U. after   26 cycles
 SCF Done:  E(UB3LYP) =  -388.864147989     A.U. after   19 cycles
 SCF Done:  E(UB3LYP) =  -388.873168690     A.U. after   19 cycles
 SCF Done:  E(UB3LYP) =  -388.873911675     A.U. after   20 cycles
 SCF Done:  E(UB3LYP) =  -388.874009616     A.U. after   20 cycles
 SCF Done:  E(UB3LYP) =  -388.874019283     A.U. after   24 cycles
 SCF Done:  E(UB3LYP) =  -388.874021860     A.U. after   14 cycles
 SCF Done:  E(UB3LYP) =  -388.874022564     A.U. after   24 cycles
 Optimization completed.
    -- Stationary point found.
 Normal termination of Gaussian 09 at Thu Jan 20 01:41:55 2005.

 ----------------------------------------------------------------------
 #P Geom=AllCheck Guess=TCheck SCRF=Check GenChk UB3LYP/Aug-CC-pVDZ Fre
 q
 ----------------------------------------------------------------------

 1,2,4-Triazine-3-N2+-UB3LYP-aug-cc-pVDZ-Triplet
 -----------------------------------------------
 Redundant internal coordinates taken from checkpoint file:
 1.chk,2,4-Triazine-3-N2+-UB3LYP-aug-cc-pVDZ-Triplet.chk
 Charge =  1 Multiplicity = 3

                         Standard orientation:
 ---------------------------------------------------------------------
 Center     Atomic      Atomic             Coordinates (Angstroms)
 Number     Number       Type             X           Y           Z
 ---------------------------------------------------------------------
      1          6           0       -0.563859    0.031251    0.000594
      2          7           0       -1.897027    0.020182    0.000291
      3          7           0       -3.037281    0.009740   -0.000565
      4          6           0        2.147188   -0.127753   -0.000143
      5          1           0        3.227006   -0.247817   -0.000001
      6          6           0        1.438967    1.131891   -0.000443
      7          1           0        2.005380    2.068272    0.000122
      8          7           0        0.139655    1.186259    0.000277
      9          7           0        0.114611   -1.181543    0.000084
     10          7           0        1.342019   -1.182180   -0.000112
 ---------------------------------------------------------------------

 SCF Done:  E(UB3LYP) =  -388.874022564     A.U. after    1 cycles

 The electronic state is 3-A.
 Alpha  occ. eigenvalues --  -14.70001 -14.67761 -14.67510 -14.66689 -14.61038
 Alpha  occ. eigenvalues --  -10.57015 -10.49056 -10.48249  -1.36220  -1.34219
 Alpha  occ. eigenvalues --   -1.20961  -1.12803  -1.04489  -0.94304  -0.90395
 Alpha  occ. eigenvalues --   -0.81279  -0.75691  -0.75163  -0.70217  -0.70037
 Alpha  occ. eigenvalues --   -0.68871  -0.67675  -0.63982  -0.61306  -0.58503
 Alpha  occ. eigenvalues --   -0.55345  -0.49669  -0.41313
 Alpha virt. eigenvalues --   -0.30720  -0.29329  -0.24018  -0.15391  -0.12937
 Alpha virt. eigenvalues --   -0.12822  -0.11285  -0.10819  -0.10231  -0.08553
 Alpha virt. eigenvalues --   -0.07874  -0.06715  -0.05912  -0.04922  -0.04012

  Beta  occ. eigenvalues --  -14.70008 -14.66957 -14.66531 -14.65453 -14.60402
  Beta  occ. eigenvalues --  -10.56575 -10.49108 -10.47671  -1.35052  -1.32811
  Beta  occ. eigenvalues --   -1.19645  -1.11202  -1.02677  -0.92780  -0.89135
  Beta  occ. eigenvalues --   -0.80111  -0.73748  -0.72909  -0.69142  -0.67793
  Beta  occ. eigenvalues --   -0.67616  -0.66567  -0.59820  -0.59322  -0.53887
  Beta  occ. eigenvalues --   -0.52350
  Beta virt. eigenvalues --   -0.38759  -0.32414  -0.29294  -0.28330  -0.20685
  Beta virt. eigenvalues --   -0.15261  -0.12662  -0.11023  -0.10437  -0.10267
  Beta virt. eigenvalues --   -0.10079  -0.08372  -0.07679  -0.06465  -0.05285

 Mulliken atomic charges:
              1
     1  C    0.406399
     2  N    0.466600
     3  N   -0.454906
     4  C    0.944788
     5  H   -0.419104
     6  C    0.676945
     7  H   -0.450648
     8  N   -0.048959
     9  N   -0.057407
    10  N   -0.063707
 Sum of Mulliken atomic charges =   1.00000

 Dipole moment (field-independent basis, Debye):
    X=              2.8345    Y=              0.8542    Z=              0.0004  Tot=              2.9604
 Quadrupole moment (field-independent basis, Debye-Ang):
   XX=            -19.9576   YY=            -38.2740   ZZ=            -41.6087
   XY=              3.3123   XZ=             -0.0009   YZ=             -0.0007

  Exact polarizability: 125.223   1.251  67.069   0.002   0.001  34.409
 Approx polarizability: 240.496   1.465 143.923   0.006   0.005  52.275

                     1                      2                      3
                     A                      A                      A
 Frequencies --   141.7881               166.3893               233.8667
 Red. masses --     7.0110                10.5324                12.5612
 Frc consts  --     0.0830                 0.1718                 0.4048
 IR Inten    --     2.7439                 0.0945                 1.3785

                     4                      5                      6
                     A                      A                      A
 Frequencies --   394.7002               480.8032               502.9729
 Red. masses --     5.0010                10.5466                11.5601
 Frc consts  --     0.4590                 1.4365                 1.7231
 IR Inten    --     0.6972                 3.8214                 3.1669

                     7                      8                      9
                     A                      A                      A
 Frequencies --   525.9292               616.6080               637.2380
 Red. masses --    11.6236                 4.8213                10.5464
 Frc consts  --     1.8943                 1.0800                 2.5232
 IR Inten    --     6.3313                11.9299                10.5107

                    10                     11                     12
                     A                      A                      A
 Frequencies --   764.8768               790.7428               878.9961
 Red. masses --     1.1858                 9.3447                 8.7660
 Frc consts  --     0.4088                 3.4426                 3.9905
 IR Inten    --    32.2653                22.4833                55.5858

                    13                     14                     15
                     A                      A                      A
 Frequencies --   930.0186               987.4753              1115.4101
 Red. masses --     1.4620                 2.8947                 4.0550
 Frc consts  --     0.7451                 1.6631                 2.9724
 IR Inten    --     0.9972                 6.9323                33.0951

                    16                     17                     18
                     A                      A                      A
 Frequencies --  1208.9312              1274.5959              1326.9372
 Red. masses --     2.2711                 2.8695                 1.8294
 Frc consts  --     1.9557                 2.7467                 1.8978
 IR Inten    --    10.0651               120.3622                35.8089

                    19                     20                     21
                     A                      A                      A
 Frequencies --  1393.1243              1512.5966              1702.9404
 Red. masses --     5.0127                 5.4930                11.7749
 Frc consts  --     5.7320                 7.4047                20.1190
 IR Inten    --    61.0301                51.0673               178.6905

                    22                     23                     24
                     A                      A                      A
 Frequencies --  2144.8446              3169.7559              3259.1844
 Red. masses --    13.9078                 1.0929                 1.0964
 Frc consts  --    37.6964                 6.4694                 6.8620
 IR Inten    --   214.3345                33.9936                57.6121

 - Thermochemistry -
 -------------------
 Temperature   298.150 Kelvin.  Pressure   1.00000 Atm.
 Atom     1 has atomic number  6 and mass  12.00000

 Molecular mass:   108.03102 amu.
 Principal axes and moments of inertia in atomic units:
                           1         2         3
     Eigenvalues --   281.056511084.127131365.18354
           X            0.99988   0.01518   0.00000
           Y           -0.01518   0.99988   0.00000
           Z            0.00000   0.00000   1.00000
 This molecule is an asymmetric top.
 Rotational symmetry number  1.
 Rotational temperatures (Kelvin)      0.30817     0.07989     0.06344
 Rotational constants (GHZ):           6.42128     1.66470     1.32198
 Zero-point vibrational energy     156475.9 (Joules/Mol)
                                   37.39864 (Kcal/Mol)
 Warning -- explicit consideration of   8 degrees of freedom as
           vibrations may cause significant error
 Vibrational temperatures:    204.00   239.40   336.48   567.88   691.77
          (Kelvin)            723.66   756.69   887.16   916.84  1100.49
                             1137.70  1264.68  1338.09  1420.75  1604.82
                             1739.38  1833.86  1909.16  2004.39  2176.29
                             2450.15  3085.95  4560.57  4689.23

 Zero-point correction=                           0.059599 (Hartree/Particle)
 Thermal correction to Energy=                    0.065878
 Thermal correction to Enthalpy=                  0.066823
 Thermal correction to Gibbs Free Energy=         0.028089
 Sum of electronic and zero-point Energies=           -388.814424
 Sum of electronic and thermal Energies=              -388.808144
 Sum of electronic and thermal Enthalpies=            -388.807200
 Sum of electronic and thermal Free Energies=         -388.845934

                     E (Thermal)             CV                S
                      KCal/Mol        Cal/Mol-Kelvin    Cal/Mol-Kelvin
 Total                   41.339             22.450             81.523
 Electronic               0.000              0.000              2.183
 Translational            0.889              2.981             39.948
 Rotational               0.889              2.981             27.522
 Vibrational             39.562             16.488             11.869
 Vibration     1          0.615              1.911              2.780
 Vibration     2          0.624              1.884              2.476
 Vibration     3          0.654              1.789              1.849
 Vibration     4          0.762              1.481              0.982
 Vibration     5          0.837              1.293              0.708
 Vibration     6          0.858              1.243              0.651
 Vibration     7          0.881              1.193              0.596
 Vibration     8          0.976              0.997              0.422

 Optimization completed.
    -- Stationary point found.
 Normal termination of Gaussian 09 at Thu Jan 20 01:46:21 2005.
