 Gaussian 09, Revision B.01,
 Gaussian 09:  EM64L-G09RevB.01 12-Aug-2010

 -------------------------------------------------
 #p Temperature=298.15 opt freq UB3LYP/aug-cc-pVDZ
 -------------------------------------------------

 -----------------------------------------------
 1,2,3-Triazine-4-N2+-UB3LYP-aug-cc-pVDZ-Triplet
 -----------------------------------------------
 Symbolic Z-matrix:
 Charge =  1 Multiplicity = 3

 SCF Done:  E(UB3LYP) =  -388.798044120     A.U. after   22 cycles
 SCF Done:  E(UB3LYP) =  -388.825747658     A.U. after   21 cycles
 SCF Done:  E(UB3LYP) =  -388.834465653     A.U. after   19 cycles
 SCF Done:  E(UB3LYP) =  -388.838140326     A.U. after   19 cycles
 SCF Done:  E(UB3LYP) =  -388.842062651     A.U. after   18 cycles
 SCF Done:  E(UB3LYP) =  -388.845371002     A.U. after   18 cycles
 SCF Done:  E(UB3LYP) =  -388.846061785     A.U. after   17 cycles
 SCF Done:  E(UB3LYP) =  -388.846241308     A.U. after   24 cycles
 SCF Done:  E(UB3LYP) =  -388.846276354     A.U. after   24 cycles
 SCF Done:  E(UB3LYP) =  -388.846278975     A.U. after   24 cycles
 SCF Done:  E(UB3LYP) =  -388.846280286     A.U. after   14 cycles
 Optimization completed.
    -- Stationary point found.
 Normal termination of Gaussian 09 at Thu Jan 20 00:41:53 2005.

 ----------------------------------------------------------------------
 #P Geom=AllCheck Guess=TCheck SCRF=Check GenChk UB3LYP/Aug-CC-pVDZ Fre
 q
 ----------------------------------------------------------------------

 1,2,3-Triazine-4-N2+-UB3LYP-aug-cc-pVDZ-Triplet
 -----------------------------------------------
 Redundant internal coordinates taken from checkpoint file:
 1.chk,2,3-Triazine-4-N2+-UB3LYP-aug-cc-pVDZ-Triplet.chk
 Charge =  1 Multiplicity = 3

                         Standard orientation:
 ---------------------------------------------------------------------
 Center     Atomic      Atomic             Coordinates (Angstroms)
 Number     Number       Type             X           Y           Z
 ---------------------------------------------------------------------
      1          6           0       -0.552650    0.027021   -0.000026
      2          6           0        0.254260    1.206711   -0.000010
      3          6           0        1.615424    1.053256   -0.000048
      4          7           0       -1.889739    0.038943   -0.000002
      5          7           0       -3.027250    0.041669    0.000038
      6          1           0        2.341430    1.862474    0.000029
      7          1           0       -0.199343    2.198180    0.000048
      8          7           0        0.051334   -1.230644   -0.000067
      9          7           0        1.295258   -1.146118    0.000034
     10          7           0        2.135498   -0.244220    0.000056
 ---------------------------------------------------------------------

 SCF Done:  E(UB3LYP) =  -388.846280286     A.U. after    1 cycles

 The electronic state is 3-A.
 Alpha  occ. eigenvalues --  -14.72037 -14.70918 -14.68282 -14.65094 -14.64620
 Alpha  occ. eigenvalues --  -10.55019 -10.48905 -10.46536  -1.38656  -1.36278
 Alpha  occ. eigenvalues --   -1.21406  -1.13059  -1.04045  -0.93909  -0.89756
 Alpha  occ. eigenvalues --   -0.80660  -0.75750  -0.74642  -0.72405  -0.69962
 Alpha  occ. eigenvalues --   -0.69581  -0.68467  -0.66780  -0.58643  -0.57197
 Alpha  occ. eigenvalues --   -0.56073  -0.51828  -0.41928
 Alpha virt. eigenvalues --   -0.30215  -0.29584  -0.25366  -0.16188  -0.13617
 Alpha virt. eigenvalues --   -0.12791  -0.12283  -0.10436  -0.10315  -0.08855
 Alpha virt. eigenvalues --   -0.08187  -0.06401  -0.05490  -0.05335  -0.04338

  Beta  occ. eigenvalues --  -14.70960 -14.70734 -14.67322 -14.64384 -14.63550
  Beta  occ. eigenvalues --  -10.54531 -10.48544 -10.46441  -1.36966  -1.35230
  Beta  occ. eigenvalues --   -1.19585  -1.11461  -1.02628  -0.92378  -0.88232
  Beta  occ. eigenvalues --   -0.79516  -0.73586  -0.72872  -0.69842  -0.69335
  Beta  occ. eigenvalues --   -0.67857  -0.66616  -0.64235  -0.55491  -0.54994
  Beta  occ. eigenvalues --   -0.52908
  Beta virt. eigenvalues --   -0.38486  -0.33422  -0.28547  -0.28482  -0.21462
  Beta virt. eigenvalues --   -0.16054  -0.12646  -0.12061  -0.11046  -0.10237
  Beta virt. eigenvalues --   -0.09929  -0.08699  -0.07856  -0.06163  -0.05338

 Mulliken atomic charges:
              1
     1  C    0.492786
     2  C    1.634832
     3  C    0.346488
     4  N    0.473061
     5  N   -0.560526
     6  H   -0.473624
     7  H   -0.602610
     8  N   -0.242600
     9  N    0.183859
    10  N   -0.251667
 Sum of Mulliken atomic charges =   1.00000

 Dipole moment (field-independent basis, Debye):
    X=              0.0855    Y=              3.0301    Z=              0.0001  Tot=              3.0313
 Quadrupole moment (field-independent basis, Debye-Ang):
   XX=            -29.3280   YY=            -33.4995   ZZ=            -41.7847
   XY=              2.2479   XZ=             -0.0001   YZ=              0.0001

  Exact polarizability: 120.431   5.246  60.909   0.000   0.000  34.580
 Approx polarizability: 252.402  16.469 109.196   0.000   0.000  52.599

                     1                      2                      3
                     A                      A                      A
 Frequencies --   142.0285               169.9545               282.1565
 Red. masses --     8.9142                 9.5794                11.5866
 Frc consts  --     0.1059                 0.1630                 0.5435
 IR Inten    --     0.6262                 1.4768                 0.0287

                     4                      5                      6
                     A                      A                      A
 Frequencies --   382.4248               413.2098               441.8656
 Red. masses --     5.1926                12.0825                 6.4768
 Frc consts  --     0.4474                 1.2155                 0.7451
 IR Inten    --     1.0937                43.4885                 0.5755

                     7                      8                      9
                     A                      A                      A
 Frequencies --   544.3399               622.4962               658.3364
 Red. masses --    10.3982                 5.4440                 8.1806
 Frc consts  --     1.8153                 1.2429                 2.0890
 IR Inten    --     1.7115                 0.1577                28.8938

                    10                     11                     12
                     A                      A                      A
 Frequencies --   757.2492               805.1099               917.5792
 Red. masses --     9.7474                 1.3157                 9.9618
 Frc consts  --     3.2932                 0.5025                 4.9417
 IR Inten    --    16.5110                35.1443                26.3538

                    13                     14                     15
                     A                      A                      A
 Frequencies --   956.4572              1004.7685              1150.0908
 Red. masses --     1.3482                 3.9441                 1.3656
 Frc consts  --     0.7267                 2.3460                 1.0643
 IR Inten    --     0.0648                15.4543                27.5844

                    16                     17                     18
                     A                      A                      A
 Frequencies --  1230.7537              1294.2461              1389.1772
 Red. masses --     3.3714                 2.8126                 3.6089
 Frc consts  --     3.0089                 2.7759                 4.1034
 IR Inten    --    11.8423                 4.1397                65.2402

                    19                     20                     21
                     A                      A                      A
 Frequencies --  1406.1155              1519.0181              1540.9532
 Red. masses --     5.4681                 6.5024                 7.5003
 Frc consts  --     6.3699                 8.8400                10.4932
 IR Inten    --    13.7611                35.7064               340.1783

                    22                     23                     24
                     A                      A                      A
 Frequencies --  2138.0309              3212.3279              3254.9012
 Red. masses --    13.9181                 1.0933                 1.0987
 Frc consts  --    37.4851                 6.6472                 6.8580
 IR Inten    --   294.6303                33.5510                26.9190

 - Thermochemistry -
 -------------------
 Temperature   298.150 Kelvin.  Pressure   1.00000 Atm.
 Atom     1 has atomic number  6 and mass  12.00000

 Molecular mass:   108.03102 amu.
 Principal axes and moments of inertia in atomic units:
                           1         2         3
     Eigenvalues --   283.623001096.572511380.19552
           X            0.99985   0.01748   0.00000
           Y           -0.01748   0.99985   0.00000
           Z            0.00000   0.00000   1.00000
 This molecule is an asymmetric top.
 Rotational symmetry number  1.
 Rotational temperatures (Kelvin)      0.30538     0.07899     0.06275
 Rotational constants (GHZ):           6.36317     1.64580     1.30760
 Zero-point vibrational energy     156911.7 (Joules/Mol)
                                   37.50280 (Kcal/Mol)
 Warning -- explicit consideration of   7 degrees of freedom as
           vibrations may cause significant error
 Vibrational temperatures:    204.35   244.53   405.96   550.22   594.52
          (Kelvin)            635.75   783.18   895.63   947.20  1089.51
                             1158.37  1320.19  1376.13  1445.64  1654.72
                             1770.78  1862.13  1998.71  2023.08  2185.53
                             2217.09  3076.15  4621.82  4683.07

 Zero-point correction=                           0.059765 (Hartree/Particle)
 Thermal correction to Energy=                    0.066043
 Thermal correction to Enthalpy=                  0.066987
 Thermal correction to Gibbs Free Energy=         0.028280
 Sum of electronic and zero-point Energies=           -388.786516
 Sum of electronic and thermal Energies=              -388.780238
 Sum of electronic and thermal Enthalpies=            -388.779294
 Sum of electronic and thermal Free Energies=         -388.818001

                     E (Thermal)             CV                S
                      KCal/Mol        Cal/Mol-Kelvin    Cal/Mol-Kelvin
 Total                   41.442             22.409             81.466
 Electronic               0.000              0.000              2.183
 Translational            0.889              2.981             39.948
 Rotational               0.889              2.981             27.553
 Vibrational             39.665             16.447             11.781
 Vibration     1          0.615              1.911              2.776
 Vibration     2          0.625              1.879              2.436
 Vibration     3          0.681              1.707              1.521
 Vibration     4          0.752              1.508              1.030
 Vibration     5          0.777              1.442              0.915
 Vibration     6          0.802              1.379              0.821
 Vibration     7          0.899              1.152              0.556

 Optimization completed.
    -- Stationary point found.
 Normal termination of Gaussian 09 at Thu Jan 20 00:46:19 2005.
