 Gaussian 09, Revision B.01,
 Gaussian 09:  EM64L-G09RevB.01 12-Aug-2010

 -------------------------------------------------
 #p Temperature=298.15 opt freq UB3LYP/aug-cc-pVDZ
 -------------------------------------------------

 --------------------------------------------
 1,2,4-Triazine-6+-UB3LYP-aug-cc-pVDZ-Triplet
 --------------------------------------------
 Symbolic Z-matrix:
 Charge =  1 Multiplicity = 3

 SCF Done:  E(UB3LYP) =  -279.289596797     A.U. after   20 cycles
 SCF Done:  E(UB3LYP) =  -279.324562779     A.U. after   18 cycles
 SCF Done:  E(UB3LYP) =  -279.329308773     A.U. after   18 cycles
 SCF Done:  E(UB3LYP) =  -279.329429655     A.U. after   18 cycles
 SCF Done:  E(UB3LYP) =  -279.329540204     A.U. after   14 cycles
 SCF Done:  E(UB3LYP) =  -279.329566138     A.U. after   21 cycles
 SCF Done:  E(UB3LYP) =  -279.329566126     A.U. after   21 cycles
 Optimization completed.
    -- Stationary point found.
 Normal termination of Gaussian 09 at Thu Jan 20 02:50:52 2005.

 ----------------------------------------------------------------------
 #P Geom=AllCheck Guess=TCheck SCRF=Check GenChk UB3LYP/Aug-CC-pVDZ Fre
 q
 ----------------------------------------------------------------------

 1,2,4-Triazine-6+-UB3LYP-aug-cc-pVDZ-Triplet
 --------------------------------------------
 Redundant internal coordinates taken from checkpoint file:
 1.chk,2,4-Triazine-6+-UB3LYP-aug-cc-pVDZ-Triplet.chk
 Charge =  1 Multiplicity = 3

                         Standard orientation:
 ---------------------------------------------------------------------
 Center     Atomic      Atomic             Coordinates (Angstroms)
 Number     Number       Type             X           Y           Z
 ---------------------------------------------------------------------
      1          6           0       -0.506699   -1.283828    0.000419
      2          6           0       -1.339348   -0.140714   -0.000661
      3          1           0       -2.430433   -0.221144    0.001417
      4          7           0        0.798797   -1.131947   -0.000133
      5          7           0       -0.769556    1.051805    0.000049
      6          7           0        1.270255    0.027293   -0.000042
      7          6           0        0.556321    1.168589    0.000066
      8          1           0        1.072324    2.126810    0.000524
 ---------------------------------------------------------------------

 SCF Done:  E(UB3LYP) =  -279.329566126     A.U. after    1 cycles

 The electronic state is 3-A.
 Alpha  occ. eigenvalues --  -14.71183 -14.70002 -14.64392 -10.55242 -10.54269
 Alpha  occ. eigenvalues --  -10.52447  -1.37821  -1.22966  -1.13290  -0.98448
 Alpha  occ. eigenvalues --   -0.96904  -0.83749  -0.80740  -0.74954  -0.71239
 Alpha  occ. eigenvalues --   -0.70160  -0.63067  -0.61493  -0.57734  -0.56215
 Alpha  occ. eigenvalues --   -0.51324
 Alpha virt. eigenvalues --   -0.33932  -0.31412  -0.15923  -0.15874  -0.13011
 Alpha virt. eigenvalues --   -0.12529  -0.10784  -0.10606  -0.09201  -0.08217
 Alpha virt. eigenvalues --   -0.06623  -0.05366  -0.04243  -0.03622  -0.02931

  Beta  occ. eigenvalues --  -14.69764 -14.69228 -14.63812 -10.55216 -10.52416
  Beta  occ. eigenvalues --  -10.52372  -1.36020  -1.21843  -1.10850  -0.96143
  Beta  occ. eigenvalues --   -0.95300  -0.81965  -0.79051  -0.73936  -0.70044
  Beta  occ. eigenvalues --   -0.64119  -0.62540  -0.56384  -0.56093
  Beta virt. eigenvalues --   -0.42071  -0.35733  -0.32985  -0.30158  -0.15801
  Beta virt. eigenvalues --   -0.14303  -0.12877  -0.12379  -0.10613  -0.10340
  Beta virt. eigenvalues --   -0.08567  -0.07785  -0.06603  -0.05255  -0.04000

 Mulliken atomic charges:
              1
     1  C    0.188367
     2  C    0.674612
     3  H   -0.210529
     4  N   -0.046290
     5  N   -0.092123
     6  N    0.094203
     7  C    0.644557
     8  H   -0.252797
 Sum of Mulliken atomic charges =   1.00000

 Dipole moment (field-independent basis, Debye):
    X=             -0.8473    Y=              0.7134    Z=              0.0010  Tot=              1.1076
 Quadrupole moment (field-independent basis, Debye-Ang):
   XX=            -22.1674   YY=            -24.7366   ZZ=            -30.8035
   XY=              4.9149   XZ=             -0.0018   YZ=              0.0003

  Exact polarizability:  61.587  -0.615  58.877   0.000   0.002  27.231
 Approx polarizability: 135.768 -10.574 123.324  -0.002  -0.002  40.956

                     1                      2                      3
                     A                      A                      A
 Frequencies --   396.1581               432.9774               624.6449
 Red. masses --     4.1557                 7.9361                 3.5340
 Frc consts  --     0.3843                 0.8766                 0.8124
 IR Inten    --     1.5939                10.8840                24.2266

                     4                      5                      6
                     A                      A                      A
 Frequencies --   639.0123               691.4395               890.2815
 Red. masses --    10.9382                 9.4180                 9.3067
 Frc consts  --     2.6316                 2.6529                 4.3461
 IR Inten    --    11.7922                10.1152               125.6302

                     7                      8                      9
                     A                      A                      A
 Frequencies --   907.1465               949.4070              1064.3554
 Red. masses --     1.4673                 1.3974                 6.6223
 Frc consts  --     0.7114                 0.7421                 4.4201
 IR Inten    --    13.9380                 0.0351                33.4839

                    10                     11                     12
                     A                      A                      A
 Frequencies --  1065.5649              1153.6764              1224.7589
 Red. masses --     5.6169                 2.0366                 2.5701
 Frc consts  --     3.7575                 1.5971                 2.2714
 IR Inten    --    13.0603                11.6597                65.4238

                    13                     14                     15
                     A                      A                      A
 Frequencies --  1346.5834              1413.7111              1489.5163
 Red. masses --     1.7479                 2.1602                11.3534
 Frc consts  --     1.8674                 2.5437                14.8411
 IR Inten    --    44.2350                23.0427                 1.8556

                    16                     17                     18
                     A                      A                      A
 Frequencies --  1616.8380              3178.0787              3247.7592
 Red. masses --    11.3882                 1.0938                 1.1006
 Frc consts  --    17.5404                 6.5092                 6.8397
 IR Inten    --    38.7371                68.3939                37.0027

 - Thermochemistry -
 -------------------
 Temperature   298.150 Kelvin.  Pressure   1.00000 Atm.
 Atom     1 has atomic number  6 and mass  12.00000

 Molecular mass:    80.02487 amu.
 Principal axes and moments of inertia in atomic units:
                           1         2         3
     Eigenvalues --   257.19609 277.19130 534.38732
           X            0.75724   0.65314  -0.00004
           Y           -0.65314   0.75724   0.00001
           Z            0.00004   0.00002   1.00000
 This molecule is an asymmetric top.
 Rotational symmetry number  1.
 Rotational temperatures (Kelvin)      0.33676     0.31247     0.16208
 Rotational constants (GHZ):           7.01699     6.51081     3.37722
 Zero-point vibrational energy     133574.5 (Joules/Mol)
                                   31.92507 (Kcal/Mol)
 Warning -- explicit consideration of   2 degrees of freedom as
           vibrations may cause significant error
 Vibrational temperatures:    569.98   622.96   898.72   919.39   994.83
          (Kelvin)           1280.91  1305.18  1365.98  1531.37  1533.11
                             1659.88  1762.15  1937.43  2034.01  2143.08
                             2326.27  4572.54  4672.80

 Zero-point correction=                           0.050876 (Hartree/Particle)
 Thermal correction to Energy=                    0.054973
 Thermal correction to Enthalpy=                  0.055917
 Thermal correction to Gibbs Free Energy=         0.022654
 Sum of electronic and zero-point Energies=           -279.278690
 Sum of electronic and thermal Energies=              -279.274593
 Sum of electronic and thermal Enthalpies=            -279.273649
 Sum of electronic and thermal Free Energies=         -279.306912

                     E (Thermal)             CV                S
                      KCal/Mol        Cal/Mol-Kelvin    Cal/Mol-Kelvin
 Total                   34.496             14.458             70.008
 Electronic               0.000              0.000              2.183
 Translational            0.889              2.981             39.054
 Rotational               0.889              2.981             25.147
 Vibrational             32.719              8.497              3.624
 Vibration     1          0.763              1.478              0.977
 Vibration     2          0.794              1.398              0.849

 Optimization completed.
    -- Stationary point found.
 Normal termination of Gaussian 09 at Thu Jan 20 02:52:23 2005.
