 Gaussian 09, Revision B.01,
 Gaussian 09:  EM64L-G09RevB.01 12-Aug-2010

 -------------------------------------------------
 #p Temperature=298.15 opt freq UB3LYP/aug-cc-pVDZ
 -------------------------------------------------

 -----------------------------------------------
 1,2,4-Triazine-5-N2+-UB3LYP-aug-cc-pVDZ-Singlet
 -----------------------------------------------
 Symbolic Z-matrix:
 Charge =  1 Multiplicity = 1

 SCF Done:  E(UB3LYP) =  -388.889002421     A.U. after   17 cycles
 SCF Done:  E(UB3LYP) =  -388.914944249     A.U. after   14 cycles
 SCF Done:  E(UB3LYP) =  -388.916739972     A.U. after   13 cycles
 SCF Done:  E(UB3LYP) =  -388.916964109     A.U. after   14 cycles
 SCF Done:  E(UB3LYP) =  -388.916994599     A.U. after   13 cycles
 SCF Done:  E(UB3LYP) =  -388.917094885     A.U. after   16 cycles
 SCF Done:  E(UB3LYP) =  -388.917104983     A.U. after   18 cycles
 SCF Done:  E(UB3LYP) =  -388.917106099     A.U. after   18 cycles
 Optimization completed.
    -- Stationary point found.
 Normal termination of Gaussian 09 at Mon Mar  5 21:10:32 2018.

 ----------------------------------------------------------------------
 #P Geom=AllCheck Guess=TCheck SCRF=Check GenChk UB3LYP/Aug-CC-pVDZ Fre
 q
 ----------------------------------------------------------------------

 1,2,4-Triazine-5-N2+-UB3LYP-aug-cc-pVDZ-Singlet
 -----------------------------------------------
 Redundant internal coordinates taken from checkpoint file:
 1.chk,2,4-Triazine-5-N2+-UB3LYP-aug-cc-pVDZ-Singlet.chk
 Charge =  1 Multiplicity = 1

                         Standard orientation:
 ---------------------------------------------------------------------
 Center     Atomic      Atomic             Coordinates (Angstroms)
 Number     Number       Type             X           Y           Z
 ---------------------------------------------------------------------
      1          6           0       -0.480452   -0.024269   -0.000265
      2          6           0        0.162603    1.209457   -0.000523
      3          7           0       -1.926029   -0.064358    0.000252
      4          7           0       -3.032507   -0.016353    0.000181
      5          1           0       -0.328550    2.182758   -0.000173
      6          6           0        1.437053   -1.123719    0.000068
      7          1           0        2.009215   -2.050540    0.000670
      8          7           0        0.103292   -1.201874   -0.000349
      9          7           0        2.145958    0.029447    0.000081
     10          7           0        1.509874    1.181563    0.000381
 ---------------------------------------------------------------------

 SCF Done:  E(UB3LYP) =  -388.917106099     A.U. after    1 cycles

 The electronic state is 1-A.
 Alpha  occ. eigenvalues --  -14.77359 -14.75334 -14.61086 -14.60412 -14.60114
 Alpha  occ. eigenvalues --  -10.56077 -10.48771 -10.48760  -1.43551  -1.28054
 Alpha  occ. eigenvalues --   -1.19817  -1.10343  -1.02581  -0.93107  -0.86192
 Alpha  occ. eigenvalues --   -0.80745  -0.78054  -0.75070  -0.74680  -0.72766
 Alpha  occ. eigenvalues --   -0.68462  -0.67904  -0.58293  -0.55927  -0.54934
 Alpha  occ. eigenvalues --   -0.53663  -0.45760
 Alpha virt. eigenvalues --   -0.35538  -0.32926  -0.28578  -0.24489  -0.18032
 Alpha virt. eigenvalues --   -0.13937  -0.12397  -0.11736  -0.11369  -0.10852
 Alpha virt. eigenvalues --   -0.09297  -0.08440  -0.06755  -0.06121  -0.05568

  Beta  occ. eigenvalues --  -14.77359 -14.75334 -14.61086 -14.60412 -14.60114
  Beta  occ. eigenvalues --  -10.56077 -10.48771 -10.48760  -1.43551  -1.28054
  Beta  occ. eigenvalues --   -1.19817  -1.10343  -1.02581  -0.93107  -0.86192
  Beta  occ. eigenvalues --   -0.80745  -0.78054  -0.75070  -0.74680  -0.72766
  Beta  occ. eigenvalues --   -0.68462  -0.67904  -0.58293  -0.55927  -0.54934
  Beta  occ. eigenvalues --   -0.53663  -0.45760
  Beta virt. eigenvalues --   -0.35538  -0.32926  -0.28578  -0.24489  -0.18032
  Beta virt. eigenvalues --   -0.13937  -0.12397  -0.11736  -0.11369  -0.10852
  Beta virt. eigenvalues --   -0.09297  -0.08440  -0.06755  -0.06121  -0.05568

 Mulliken atomic charges:
              1
     1  C    0.304107
     2  C    1.138019
     3  N    0.565911
     4  N   -0.441699
     5  H   -0.497411
     6  C    0.699258
     7  H   -0.381085
     8  N   -0.011276
     9  N   -0.062855
    10  N   -0.312969
 Sum of Mulliken atomic charges =   1.00000

 Dipole moment (field-independent basis, Debye):
    X=             -4.6448    Y=             -0.0343    Z=             -0.0003  Tot=              4.6449
 Quadrupole moment (field-independent basis, Debye-Ang):
   XX=            -28.7256   YY=            -35.6921   ZZ=            -40.7781
   XY=             -6.9170   XZ=             -0.0016   YZ=             -0.0031

  Exact polarizability: 100.233  -0.947  62.934   0.003  -0.003  34.776
 Approx polarizability: 196.355   6.145 114.874   0.010  -0.002  54.384

                     1                      2                      3
                     A                      A                      A
 Frequencies --   119.3119               137.3546               235.2809
 Red. masses --     8.1402                 9.7324                 5.1501
 Frc consts  --     0.0683                 0.1082                 0.1680
 IR Inten    --     6.9998                 2.4130                 9.6117

                     4                      5                      6
                     A                      A                      A
 Frequencies --   382.7056               409.0413               518.0235
 Red. masses --     7.9377                12.0134                 9.9691
 Frc consts  --     0.6850                 1.1843                 1.5762
 IR Inten    --    18.5734                 6.0815                 4.6140

                     7                      8                      9
                     A                      A                      A
 Frequencies --   557.3506               665.5152               756.5650
 Red. masses --     5.7439                11.2248                 9.9413
 Frc consts  --     1.0513                 2.9292                 3.3526
 IR Inten    --     1.2567                 2.3998                 1.5882

                    10                     11                     12
                     A                      A                      A
 Frequencies --   772.2537               913.2362               988.5378
 Red. masses --     5.0431                 1.4403                 1.3811
 Frc consts  --     1.7720                 0.7077                 0.7951
 IR Inten    --     1.3683                 8.9759                 0.9544

                    13                     14                     15
                     A                      A                      A
 Frequencies --  1021.9162              1046.2121              1082.0833
 Red. masses --     8.7854                 9.5973                 2.1993
 Frc consts  --     5.4056                 6.1893                 1.5173
 IR Inten    --    21.9372                10.5678                42.8712

                    16                     17                     18
                     A                      A                      A
 Frequencies --  1104.9958              1252.1107              1325.7877
 Red. masses --    11.8676                 3.5270                 1.5811
 Frc consts  --     8.5376                 3.2579                 1.6374
 IR Inten    --    36.3687                38.7975                13.3554

                    19                     20                     21
                     A                      A                      A
 Frequencies --  1432.0020              1488.9945              1590.9174
 Red. masses --     1.8496                 4.9042                 9.4716
 Frc consts  --     2.2347                 6.4063                14.1244
 IR Inten    --     1.1584                 1.5689                13.8517

                    22                     23                     24
                     A                      A                      A
 Frequencies --  2383.1193              3213.6722              3229.1353
 Red. masses --    13.9863                 1.0977                 1.0967
 Frc consts  --    46.7997                 6.6792                 6.7379
 IR Inten    --    33.5037                17.4696                 8.3068

 - Thermochemistry -
 -------------------
 Temperature   298.150 Kelvin.  Pressure   1.00000 Atm.
 Atom     1 has atomic number  6 and mass  12.00000

 Molecular mass:   108.03102 amu.
 Principal axes and moments of inertia in atomic units:
                           1         2         3
     Eigenvalues --   291.049911104.885081395.93492
           X            0.99978  -0.02108   0.00000
           Y            0.02108   0.99978  -0.00002
           Z            0.00000   0.00002   1.00000
 This molecule is an asymmetric top.
 Rotational symmetry number  1.
 Rotational temperatures (Kelvin)      0.29759     0.07839     0.06205
 Rotational constants (GHZ):           6.20080     1.63342     1.29285
 Zero-point vibrational energy     159259.6 (Joules/Mol)
                                   38.06395 (Kcal/Mol)
 Warning -- explicit consideration of   7 degrees of freedom as
           vibrations may cause significant error
 Vibrational temperatures:    171.66   197.62   338.52   550.63   588.52
          (Kelvin)            745.32   801.90   957.53  1088.53  1111.10
                             1313.94  1422.28  1470.31  1505.26  1556.87
                             1589.84  1801.51  1907.51  2060.33  2142.33
                             2288.97  3428.77  4623.75  4646.00

 Zero-point correction=                           0.060659 (Hartree/Particle)
 Thermal correction to Energy=                    0.066937
 Thermal correction to Enthalpy=                  0.067881
 Thermal correction to Gibbs Free Energy=         0.029927
 Sum of electronic and zero-point Energies=           -388.856447
 Sum of electronic and thermal Energies=              -388.850170
 Sum of electronic and thermal Enthalpies=            -388.849225
 Sum of electronic and thermal Free Energies=         -388.887179

                     E (Thermal)             CV                S
                      KCal/Mol        Cal/Mol-Kelvin    Cal/Mol-Kelvin
 Total                   42.003             21.874             79.881
 Electronic               0.000              0.000              0.000
 Translational            0.889              2.981             39.948
 Rotational               0.889              2.981             27.598
 Vibrational             40.226             15.912             12.335
 Vibration     1          0.609              1.933              3.111
 Vibration     2          0.614              1.916              2.840
 Vibration     3          0.655              1.787              1.838
 Vibration     4          0.752              1.507              1.028
 Vibration     5          0.773              1.451              0.930
 Vibration     6          0.873              1.210              0.615
 Vibration     7          0.913              1.124              0.529

 Optimization completed.
    -- Stationary point found.
 Normal termination of Gaussian 09 at Mon Mar  5 21:14:59 2018.
