 Gaussian 09, Revision B.01,
 Gaussian 09:  EM64L-G09RevB.01 12-Aug-2010

 -------------------------------------------------
 #p Temperature=298.15 opt freq UB3LYP/aug-cc-pVDZ
 -------------------------------------------------

 ---------------------------------------------
 1,2,3-Triazine-4-N2-UB3LYP-aug-cc-pVDZ-Duplet
 ---------------------------------------------
 Symbolic Z-matrix:
 Charge =  0 Multiplicity = 2

 SCF Done:  E(UB3LYP) =  -388.868870546     A.U. after   26 cycles
 SCF Done:  E(UB3LYP) =  -389.001853762     A.U. after   21 cycles
 SCF Done:  E(UB3LYP) =  -389.120919304     A.U. after   22 cycles
 SCF Done:  E(UB3LYP) =  -389.161480972     A.U. after   20 cycles
 SCF Done:  E(UB3LYP) =  -389.174966084     A.U. after   20 cycles
 SCF Done:  E(UB3LYP) =  -389.181426619     A.U. after   21 cycles
 SCF Done:  E(UB3LYP) =  -389.182655334     A.U. after   18 cycles
 SCF Done:  E(UB3LYP) =  -389.183232604     A.U. after   18 cycles
 SCF Done:  E(UB3LYP) =  -389.183348316     A.U. after   17 cycles
 SCF Done:  E(UB3LYP) =  -389.183415592     A.U. after   17 cycles
 SCF Done:  E(UB3LYP) =  -389.183462486     A.U. after   16 cycles
 SCF Done:  E(UB3LYP) =  -389.183503707     A.U. after   17 cycles
 SCF Done:  E(UB3LYP) =  -389.183533347     A.U. after   17 cycles
 SCF Done:  E(UB3LYP) =  -389.183546467     A.U. after   17 cycles
 SCF Done:  E(UB3LYP) =  -389.183548228     A.U. after   15 cycles
 Optimization completed.
    -- Stationary point found.
 Normal termination of Gaussian 09 at Tue Mar 20 18:04:45 2018.

 ----------------------------------------------------------------------
 #P Geom=AllCheck Guess=TCheck SCRF=Check GenChk UB3LYP/Aug-CC-pVDZ Fre
 q
 ----------------------------------------------------------------------

 1,2,3-Triazine-4-N2-UB3LYP-aug-cc-pVDZ-Duplet
 ---------------------------------------------
 Redundant internal coordinates taken from checkpoint file:
 1.chk,2,3-Triazine-4-N2-UB3LYP-aug-cc-pVDZ-Duplet.chk
 Charge =  0 Multiplicity = 2

                         Standard orientation:
 ---------------------------------------------------------------------
 Center     Atomic      Atomic             Coordinates (Angstroms)
 Number     Number       Type             X           Y           Z
 ---------------------------------------------------------------------
      1          6           0        0.533447   -0.165575   -0.062854
      2          6           0        0.025191    1.127758   -0.064173
      3          6           0       -1.359900    1.185430   -0.007904
      4          7           0        1.968487   -0.445873   -0.175681
      5          7           0        2.799046    0.302701    0.207370
      6          1           0       -1.904151    2.130946   -0.010177
      7          1           0        0.664116    2.008315   -0.109810
      8          7           0       -0.231586   -1.252583   -0.013603
      9          7           0       -1.551019   -1.115056    0.059829
     10          7           0       -2.120985    0.078678    0.054882
 ---------------------------------------------------------------------

 SCF Done:  E(UB3LYP) =  -389.183548228     A.U. after    1 cycles

 The electronic state is 2-A.
 Alpha  occ. eigenvalues --  -14.45456 -14.44260 -14.43776 -14.41331 -14.41051
 Alpha  occ. eigenvalues --  -10.32601 -10.28732 -10.27016  -1.11882  -1.10141
 Alpha  occ. eigenvalues --   -0.95449  -0.89134  -0.77076  -0.73923  -0.65601
 Alpha  occ. eigenvalues --   -0.59398  -0.54867  -0.51319  -0.50293  -0.48410
 Alpha  occ. eigenvalues --   -0.46091  -0.45047  -0.41553  -0.36473  -0.35424
 Alpha  occ. eigenvalues --   -0.30966  -0.29044  -0.24399
 Alpha virt. eigenvalues --   -0.12353  -0.10230  -0.04975  -0.02089   0.00886
 Alpha virt. eigenvalues --    0.01862   0.03194   0.04697   0.05252   0.05625
 Alpha virt. eigenvalues --    0.06186   0.07000   0.07675   0.08466   0.09185

  Beta  occ. eigenvalues --  -14.45083 -14.44234 -14.42249 -14.41366 -14.41066
  Beta  occ. eigenvalues --  -10.32195 -10.28722 -10.27011  -1.11127  -1.09109
  Beta  occ. eigenvalues --   -0.95297  -0.88776  -0.75956  -0.73697  -0.64512
  Beta  occ. eigenvalues --   -0.59094  -0.54079  -0.50358  -0.49764  -0.46197
  Beta  occ. eigenvalues --   -0.45328  -0.42112  -0.40821  -0.36365  -0.35014
  Beta  occ. eigenvalues --   -0.30834  -0.28984
  Beta virt. eigenvalues --   -0.11818  -0.10603  -0.09869  -0.04228  -0.01992
  Beta virt. eigenvalues --    0.00964   0.01887   0.03201   0.04783   0.05328
  Beta virt. eigenvalues --    0.05680   0.06347   0.06993   0.07745   0.08576

 Mulliken atomic charges:
              1
     1  C    0.001647
     2  C    1.902296
     3  C    0.305548
     4  N    0.022303
     5  N   -0.485508
     6  H   -0.497598
     7  H   -0.657303
     8  N   -0.133835
     9  N   -0.323298
    10  N   -0.134252
 Sum of Mulliken atomic charges =   0.00000

 Dipole moment (field-independent basis, Debye):
    X=              0.2785    Y=              4.1483    Z=             -0.2868  Tot=              4.1675
 Quadrupole moment (field-independent basis, Debye-Ang):
   XX=            -55.9227   YY=            -44.6151   ZZ=            -44.1939
   XY=             -4.2003   XZ=             -0.1413   YZ=             -0.6965

  Exact polarizability:  95.896   1.415  71.858   0.549   0.756  41.276
 Approx polarizability: 156.227   8.215 130.189   1.507   2.345  65.201

                     1                      2                      3
                     A                      A                      A
 Frequencies --    65.6158               169.6786               265.0427
 Red. masses --    11.4028                 8.0600                 8.2126
 Frc consts  --     0.0289                 0.1367                 0.3399
 IR Inten    --     3.6474                 2.4108                 6.2820

                     4                      5                      6
                     A                      A                      A
 Frequencies --   338.5715               434.0320               490.1150
 Red. masses --     4.2325                10.0208                 7.5935
 Frc consts  --     0.2859                 1.1122                 1.0747
 IR Inten    --     1.5754                 1.5506                 0.5612

                     7                      8                      9
                     A                      A                      A
 Frequencies --   597.3912               679.0713               779.3896
 Red. masses --     7.5777                 8.8561                 8.5603
 Frc consts  --     1.5933                 2.4062                 3.0637
 IR Inten    --     6.6740                 1.4096                11.4208

                    10                     11                     12
                     A                      A                      A
 Frequencies --   804.2012               859.8105              1000.9038
 Red. masses --     6.5903                 1.3780                 1.4619
 Frc consts  --     2.5112                 0.6002                 0.8629
 IR Inten    --     1.1547                24.0829                 1.0667

                    13                     14                     15
                     A                      A                      A
 Frequencies --  1009.7474              1015.5972              1090.4304
 Red. masses --     6.7193                 9.0498                 1.7828
 Frc consts  --     4.0365                 5.4996                 1.2489
 IR Inten    --    11.5559                 4.1764                 3.1668

                    16                     17                     18
                     A                      A                      A
 Frequencies --  1137.1912              1180.5673              1312.1873
 Red. masses --     6.0059                 2.1433                 4.1946
 Frc consts  --     4.5761                 1.7600                 4.2553
 IR Inten    --     3.7742                 3.2842                 3.9985

                    19                     20                     21
                     A                      A                      A
 Frequencies --  1410.2814              1570.1808              1576.7870
 Red. masses --     2.0522                 5.4690                 6.8091
 Frc consts  --     2.4048                 7.9443                 9.9744
 IR Inten    --    24.8798                60.2857                17.7734

                    22                     23                     24
                     A                      A                      A
 Frequencies --  1865.6878              3188.9305              3218.0361
 Red. masses --    13.9431                 1.0916                 1.0969
 Frc consts  --    28.5949                 6.5404                 6.6926
 IR Inten    --    17.3883                 3.5192                 0.6751

 - Thermochemistry -
 -------------------
 Temperature   298.150 Kelvin.  Pressure   1.00000 Atm.
 Atom     1 has atomic number  6 and mass  12.00000

 Molecular mass:   108.03102 amu.
 Principal axes and moments of inertia in atomic units:
                           1         2         3
     Eigenvalues --   305.952701044.092941341.20213
           X            0.99991  -0.01333  -0.00015
           Y            0.01333   0.99991  -0.00294
           Z            0.00019   0.00294   1.00000
 This molecule is an asymmetric top.
 Rotational symmetry number  1.
 Rotational temperatures (Kelvin)      0.28310     0.08296     0.06458
 Rotational constants (GHZ):           5.89876     1.72853     1.34561
 Zero-point vibrational energy     155870.1 (Joules/Mol)
                                   37.25385 (Kcal/Mol)
 Warning -- explicit consideration of   7 degrees of freedom as
           vibrations may cause significant error
 Vibrational temperatures:     94.41   244.13   381.34   487.13   624.47
          (Kelvin)            705.17   859.51   977.03  1121.37  1157.06
                             1237.07  1440.08  1452.80  1461.22  1568.88
                             1636.16  1698.57  1887.94  2029.08  2259.14
                             2268.64  2684.31  4588.15  4630.03

 Zero-point correction=                           0.059368 (Hartree/Particle)
 Thermal correction to Energy=                    0.065668
 Thermal correction to Enthalpy=                  0.066612
 Thermal correction to Gibbs Free Energy=         0.027723
 Sum of electronic and zero-point Energies=           -389.124180
 Sum of electronic and thermal Energies=              -389.117881
 Sum of electronic and thermal Enthalpies=            -389.116936
 Sum of electronic and thermal Free Energies=         -389.155825

                     E (Thermal)             CV                S
                      KCal/Mol        Cal/Mol-Kelvin    Cal/Mol-Kelvin
 Total                   41.207             21.848             81.849
 Electronic               0.000              0.000              1.377
 Translational            0.889              2.981             39.948
 Rotational               0.889              2.981             27.551
 Vibrational             39.430             15.887             12.971
 Vibration     1          0.597              1.971              4.281
 Vibration     2          0.625              1.880              2.439
 Vibration     3          0.671              1.737              1.628
 Vibration     4          0.719              1.598              1.219
 Vibration     5          0.795              1.396              0.846
 Vibration     6          0.846              1.272              0.683
 Vibration     7          0.955              1.037              0.454

 Normal termination of Gaussian 09 at Tue Mar 20 18:09:28 2018.
