 Gaussian 09, Revision B.01,
 Gaussian 09:  EM64L-G09RevB.01 12-Aug-2010

 -------------------------------------------------
 #p Temperature=298.15 opt freq UB3LYP/aug-cc-pVDZ
 -------------------------------------------------

 -----------------------------------------------
 1,2,4-Triazine-6-N2+-UB3LYP-aug-cc-pVDZ-Triplet
 -----------------------------------------------
 Symbolic Z-matrix:
 Charge =  1 Multiplicity = 3

 SCF Done:  E(UB3LYP) =  -388.834388734     A.U. after   22 cycles
 SCF Done:  E(UB3LYP) =  -388.864084605     A.U. after   19 cycles
 SCF Done:  E(UB3LYP) =  -388.871248828     A.U. after   19 cycles
 SCF Done:  E(UB3LYP) =  -388.872284720     A.U. after   17 cycles
 SCF Done:  E(UB3LYP) =  -388.872469463     A.U. after   21 cycles
 SCF Done:  E(UB3LYP) =  -388.872563062     A.U. after   21 cycles
 SCF Done:  E(UB3LYP) =  -388.872573975     A.U. after   24 cycles
 SCF Done:  E(UB3LYP) =  -388.872576449     A.U. after   24 cycles
 Optimization completed.
    -- Stationary point found.
 Normal termination of Gaussian 09 at Thu Jan 20 02:40:28 2005.

 ----------------------------------------------------------------------
 #P Geom=AllCheck Guess=TCheck SCRF=Check GenChk UB3LYP/Aug-CC-pVDZ Fre
 q
 ----------------------------------------------------------------------

 1,2,4-Triazine-6-N2+-UB3LYP-aug-cc-pVDZ-Triplet
 -----------------------------------------------
 Redundant internal coordinates taken from checkpoint file:
 1.chk,2,4-Triazine-6-N2+-UB3LYP-aug-cc-pVDZ-Triplet.chk
 Charge =  1 Multiplicity = 3

                         Standard orientation:
 ---------------------------------------------------------------------
 Center     Atomic      Atomic             Coordinates (Angstroms)
 Number     Number       Type             X           Y           Z
 ---------------------------------------------------------------------
      1          6           0        0.578216   -0.007995    0.000059
      2          6           0       -0.220116    1.202240   -0.000135
      3          7           0        1.909979   -0.020553    0.000218
      4          7           0        3.049529   -0.014475   -0.000148
      5          1           0        0.270237    2.180933   -0.000032
      6          7           0       -0.127436   -1.190421    0.000055
      7          7           0       -1.511744    1.131662    0.000052
      8          7           0       -1.364501   -1.153555   -0.000144
      9          6           0       -2.147043   -0.073981   -0.000013
     10          1           0       -3.227369   -0.171129    0.000331
 ---------------------------------------------------------------------

 SCF Done:  E(UB3LYP) =  -388.872576449     A.U. after    1 cycles

 The electronic state is 3-A.
 Alpha  occ. eigenvalues --  -14.70775 -14.67928 -14.67223 -14.66056 -14.60472
 Alpha  occ. eigenvalues --  -10.54803 -10.50919 -10.50262  -1.36372  -1.33997
 Alpha  occ. eigenvalues --   -1.19663  -1.14396  -1.03807  -0.93967  -0.90598
 Alpha  occ. eigenvalues --   -0.81703  -0.77308  -0.74966  -0.70545  -0.69517
 Alpha  occ. eigenvalues --   -0.69317  -0.68545  -0.64055  -0.60899  -0.57368
 Alpha  occ. eigenvalues --   -0.55887  -0.49603  -0.41263
 Alpha virt. eigenvalues --   -0.30680  -0.29794  -0.24713  -0.15821  -0.13438
 Alpha virt. eigenvalues --   -0.12604  -0.11672  -0.10864  -0.09977  -0.08318
 Alpha virt. eigenvalues --   -0.08150  -0.06506  -0.06100  -0.05465  -0.04704

  Beta  occ. eigenvalues --  -14.70796 -14.66995 -14.66304 -14.64676 -14.60005
  Beta  occ. eigenvalues --  -10.54406 -10.50412 -10.50234  -1.35363  -1.32261
  Beta  occ. eigenvalues --   -1.18422  -1.12817  -1.01886  -0.92672  -0.89070
  Beta  occ. eigenvalues --   -0.80681  -0.75954  -0.72667  -0.68713  -0.68021
  Beta  occ. eigenvalues --   -0.67692  -0.67363  -0.59738  -0.59098  -0.52910
  Beta  occ. eigenvalues --   -0.52741
  Beta virt. eigenvalues --   -0.38758  -0.32544  -0.29002  -0.28592  -0.21331
  Beta virt. eigenvalues --   -0.15689  -0.12439  -0.11505  -0.11471  -0.10578
  Beta virt. eigenvalues --   -0.09253  -0.08102  -0.07886  -0.06165  -0.05476

 Mulliken atomic charges:
              1
     1  C    0.661586
     2  C    0.620148
     3  N    0.514675
     4  N   -0.475929
     5  H   -0.478602
     6  N   -0.103302
     7  N   -0.136337
     8  N    0.026699
     9  C    0.678678
    10  H   -0.307615
 Sum of Mulliken atomic charges =   1.00000

 Dipole moment (field-independent basis, Debye):
    X=             -0.5054    Y=              1.1534    Z=              0.0003  Tot=              1.2592
 Quadrupole moment (field-independent basis, Debye-Ang):
   XX=            -24.2681   YY=            -37.7185   ZZ=            -41.6123
   XY=              3.0051   XZ=             -0.0007   YZ=             -0.0004

  Exact polarizability: 125.782  -0.572  69.252  -0.001   0.000  34.225
 Approx polarizability: 254.612  -9.276 149.709  -0.003   0.001  52.124

                     1                      2                      3
                     A                      A                      A
 Frequencies --   135.5098               167.9463               266.2820
 Red. masses --     5.3616                 9.7637                10.9346
 Frc consts  --     0.0580                 0.1623                 0.4568
 IR Inten    --     0.0547                 1.0336                 2.5072

                     4                      5                      6
                     A                      A                      A
 Frequencies --   395.4752               462.0714               476.5202
 Red. masses --     6.8361                 6.2223                10.0026
 Frc consts  --     0.6299                 0.7827                 1.3382
 IR Inten    --     0.9798                 4.8075                 1.9078

                     7                      8                      9
                     A                      A                      A
 Frequencies --   534.9046               604.7633               622.0500
 Red. masses --    10.7571                11.1204                 4.3257
 Frc consts  --     1.8134                 2.3963                 0.9862
 IR Inten    --     0.1024                12.1920                16.9006

                    10                     11                     12
                     A                      A                      A
 Frequencies --   764.1081               836.0858               894.3078
 Red. masses --    12.0668                 1.3143                 5.9782
 Frc consts  --     4.1510                 0.5413                 2.8170
 IR Inten    --    42.5588                17.4676                78.4353

                    13                     14                     15
                     A                      A                      A
 Frequencies --   911.0910              1079.4637              1146.0709
 Red. masses --     1.4605                 4.5591                 5.1926
 Frc consts  --     0.7143                 3.1300                 4.0185
 IR Inten    --     3.4335                 5.2165                 2.7774

                    16                     17                     18
                     A                      A                      A
 Frequencies --  1225.0824              1281.7936              1294.6575
 Red. masses --     5.4732                 1.5875                 2.1449
 Frc consts  --     4.8398                 1.5367                 2.1182
 IR Inten    --    65.0549                47.3644                17.0218

                    19                     20                     21
                     A                      A                      A
 Frequencies --  1370.4073              1524.2368              1600.2749
 Red. masses --     2.6459                 5.0139                11.6200
 Frc consts  --     2.9276                 6.8633                17.5326
 IR Inten    --    32.9864                81.6149                79.7041

                    22                     23                     24
                     A                      A                      A
 Frequencies --  2133.9631              3164.0693              3278.4857
 Red. masses --    13.9226                 1.0938                 1.0973
 Frc consts  --    37.3546                 6.4519                 6.9487
 IR Inten    --   343.2171                33.1912                41.7675

 - Thermochemistry -
 -------------------
 Temperature   298.150 Kelvin.  Pressure   1.00000 Atm.
 Atom     1 has atomic number  6 and mass  12.00000

 Molecular mass:   108.03102 amu.
 Principal axes and moments of inertia in atomic units:
                           1         2         3
     Eigenvalues --   280.727691107.084511387.81219
           X            0.99999   0.00466   0.00000
           Y           -0.00466   0.99999   0.00000
           Z            0.00000   0.00000   1.00000
 This molecule is an asymmetric top.
 Rotational symmetry number  1.
 Rotational temperatures (Kelvin)      0.30853     0.07824     0.06241
 Rotational constants (GHZ):           6.42880     1.63017     1.30042
 Zero-point vibrational energy     156529.1 (Joules/Mol)
                                   37.41135 (Kcal/Mol)
 Warning -- explicit consideration of   8 degrees of freedom as
           vibrations may cause significant error
 Vibrational temperatures:    194.97   241.64   383.12   569.00   664.82
          (Kelvin)            685.61   769.61   870.12   894.99  1099.38
                             1202.94  1286.71  1310.86  1553.11  1648.94
                             1762.62  1844.21  1862.72  1971.71  2193.03
                             2302.44  3070.29  4552.38  4717.00

 Zero-point correction=                           0.059619 (Hartree/Particle)
 Thermal correction to Energy=                    0.065879
 Thermal correction to Enthalpy=                  0.066824
 Thermal correction to Gibbs Free Energy=         0.028113
 Sum of electronic and zero-point Energies=           -388.812958
 Sum of electronic and thermal Energies=              -388.806697
 Sum of electronic and thermal Enthalpies=            -388.805753
 Sum of electronic and thermal Free Energies=         -388.844463

                     E (Thermal)             CV                S
                      KCal/Mol        Cal/Mol-Kelvin    Cal/Mol-Kelvin
 Total                   41.340             22.374             81.473
 Electronic               0.000              0.000              2.183
 Translational            0.889              2.981             39.948
 Rotational               0.889              2.981             27.558
 Vibrational             39.563             16.412             11.783
 Vibration     1          0.613              1.918              2.866
 Vibration     2          0.625              1.882              2.458
 Vibration     3          0.672              1.735              1.620
 Vibration     4          0.762              1.480              0.979
 Vibration     5          0.820              1.334              0.760
 Vibration     6          0.833              1.302              0.720
 Vibration     7          0.890              1.173              0.576
 Vibration     8          0.963              1.022              0.442

 Optimization completed.
    -- Stationary point found.
 Normal termination of Gaussian 09 at Thu Jan 20 02:44:52 2005.
