 Gaussian 09, Revision B.01,
 Gaussian 09:  EM64L-G09RevB.01 12-Aug-2010

 -------------------------------------------------
 #p Temperature=298.15 opt freq UB3LYP/aug-cc-pVDZ
 -------------------------------------------------

 -----------------------------------------------
 1,2,3-Triazine-4-N2+-UB3LYP-aug-cc-pVDZ-Singlet
 -----------------------------------------------
 Symbolic Z-matrix:
 Charge =  1 Multiplicity = 1

 SCF Done:  E(UB3LYP) =  -388.869841565     A.U. after   17 cycles
 SCF Done:  E(UB3LYP) =  -388.889473450     A.U. after   15 cycles
 SCF Done:  E(UB3LYP) =  -388.890929515     A.U. after   13 cycles
 SCF Done:  E(UB3LYP) =  -388.891154854     A.U. after   12 cycles
 SCF Done:  E(UB3LYP) =  -388.891222365     A.U. after   11 cycles
 SCF Done:  E(UB3LYP) =  -388.891231036     A.U. after   10 cycles
 SCF Done:  E(UB3LYP) =  -388.891233675     A.U. after   18 cycles
 SCF Done:  E(UB3LYP) =  -388.891234297     A.U. after   18 cycles
 Optimization completed.
    -- Stationary point found.
 Normal termination of Gaussian 09 at Mon Mar  5 20:16:03 2018.

 ----------------------------------------------------------------------
 #P Geom=AllCheck Guess=TCheck SCRF=Check GenChk UB3LYP/Aug-CC-pVDZ Fre
 q
 ----------------------------------------------------------------------

 1,2,3-Triazine-4-N2+-UB3LYP-aug-cc-pVDZ-Singlet
 -----------------------------------------------
 Redundant internal coordinates taken from checkpoint file:
 1.chk,2,3-Triazine-4-N2+-UB3LYP-aug-cc-pVDZ-Singlet.chk
 Charge =  1 Multiplicity = 1

                         Standard orientation:
 ---------------------------------------------------------------------
 Center     Atomic      Atomic             Coordinates (Angstroms)
 Number     Number       Type             X           Y           Z
 ---------------------------------------------------------------------
      1          6           0        0.481049    0.069092   -0.000071
      2          6           0       -0.219176    1.262844   -0.000031
      3          6           0       -1.600700    1.036001    0.000027
      4          7           0        1.912963    0.058463    0.000026
      5          7           0        3.016365   -0.034529    0.000065
      6          1           0       -2.319495    1.856609    0.000101
      7          1           0        0.233712    2.253796   -0.000008
      8          7           0       -0.022121   -1.164760   -0.000180
      9          7           0       -1.341523   -1.274987    0.000179
     10          7           0       -2.120149   -0.201049   -0.000040
 ---------------------------------------------------------------------

 SCF Done:  E(UB3LYP) =  -388.891234297     A.U. after    1 cycles

 The electronic state is 1-A.
 Alpha  occ. eigenvalues --  -14.77540 -14.75397 -14.63320 -14.61953 -14.59809
 Alpha  occ. eigenvalues --  -10.55917 -10.47622 -10.47290  -1.43700  -1.30311
 Alpha  occ. eigenvalues --   -1.16913  -1.11044  -1.01677  -0.94318  -0.86265
 Alpha  occ. eigenvalues --   -0.80038  -0.78252  -0.75113  -0.74732  -0.72442
 Alpha  occ. eigenvalues --   -0.67964  -0.67123  -0.60611  -0.56586  -0.54736
 Alpha  occ. eigenvalues --   -0.49854  -0.47157
 Alpha virt. eigenvalues --   -0.35447  -0.32976  -0.29172  -0.24552  -0.18351
 Alpha virt. eigenvalues --   -0.13909  -0.13362  -0.12149  -0.11674  -0.10941
 Alpha virt. eigenvalues --   -0.08811  -0.08287  -0.06752  -0.06297  -0.05637

  Beta  occ. eigenvalues --  -14.77540 -14.75397 -14.63320 -14.61953 -14.59809
  Beta  occ. eigenvalues --  -10.55917 -10.47622 -10.47290  -1.43700  -1.30311
  Beta  occ. eigenvalues --   -1.16913  -1.11044  -1.01677  -0.94318  -0.86265
  Beta  occ. eigenvalues --   -0.80038  -0.78252  -0.75113  -0.74732  -0.72442
  Beta  occ. eigenvalues --   -0.67964  -0.67123  -0.60611  -0.56586  -0.54736
  Beta  occ. eigenvalues --   -0.49854  -0.47157
  Beta virt. eigenvalues --   -0.35447  -0.32976  -0.29172  -0.24552  -0.18351
  Beta virt. eigenvalues --   -0.13909  -0.13362  -0.12149  -0.11674  -0.10941
  Beta virt. eigenvalues --   -0.08811  -0.08287  -0.06752  -0.06297  -0.05637

 Mulliken atomic charges:
              1
     1  C    0.320859
     2  C    1.602427
     3  C    0.390439
     4  N    0.593776
     5  N   -0.519934
     6  H   -0.432916
     7  H   -0.569481
     8  N   -0.100407
     9  N   -0.199284
    10  N   -0.085479
 Sum of Mulliken atomic charges =   1.00000

 Dipole moment (field-independent basis, Debye):
    X=              4.1490    Y=              5.0576    Z=              0.0000  Tot=              6.5416
 Quadrupole moment (field-independent basis, Debye-Ang):
   XX=            -26.9106   YY=            -36.4389   ZZ=            -40.9662
   XY=             -4.5738   XZ=              0.0002   YZ=              0.0003

  Exact polarizability:  99.054  -0.781  63.613  -0.001   0.000  35.055
 Approx polarizability: 190.637   3.461 119.932  -0.003   0.000  55.141

                     1                      2                      3
                     A                      A                      A
 Frequencies --   133.9470               158.0029               306.0610
 Red. masses --     8.8941                 9.6991                 3.9002
 Frc consts  --     0.0940                 0.1427                 0.2153
 IR Inten    --     0.8745                 4.7705                 0.5329

                     4                      5                      6
                     A                      A                      A
 Frequencies --   320.7716               442.6649               514.1673
 Red. masses --     9.7796                11.4891                10.2707
 Frc consts  --     0.5929                 1.3264                 1.5998
 IR Inten    --     0.0000                10.2510                 0.2792

                     7                      8                      9
                     A                      A                      A
 Frequencies --   557.8299               672.1062               743.0825
 Red. masses --     6.5818                 9.2150                 9.5487
 Frc consts  --     1.2067                 2.4526                 3.1065
 IR Inten    --     1.0627                 7.7532                 1.2328

                    10                     11                     12
                     A                      A                      A
 Frequencies --   771.4512               849.3799               936.8437
 Red. masses --     6.8822                 1.3250                10.9220
 Frc consts  --     2.4132                 0.5632                 5.6479
 IR Inten    --     0.4799                21.9488                 8.8723

                    13                     14                     15
                     A                      A                      A
 Frequencies --  1005.7246              1015.1998              1048.4231
 Red. masses --     1.4087                 8.7812                 2.4969
 Frc consts  --     0.8395                 5.3322                 1.6171
 IR Inten    --     0.0024                17.1848                 9.1323

                    16                     17                     18
                     A                      A                      A
 Frequencies --  1102.7123              1141.8369              1326.8524
 Red. masses --     8.2296                 1.7791                 3.7600
 Frc consts  --     5.8959                 1.3667                 3.9002
 IR Inten    --     3.4781                 4.8087                 8.0005

                    19                     20                     21
                     A                      A                      A
 Frequencies --  1378.2635              1503.2776              1585.7284
 Red. masses --     1.7704                 4.3499                 6.9085
 Frc consts  --     1.9814                 5.7917                10.2351
 IR Inten    --     3.1993                21.3263                18.4888

                    22                     23                     24
                     A                      A                      A
 Frequencies --  2390.1635              3207.0117              3223.3179
 Red. masses --    13.9798                 1.0940                 1.1003
 Frc consts  --    47.0550                 6.6292                 6.7355
 IR Inten    --    35.2339                10.1435                21.0413

 - Thermochemistry -
 -------------------
 Temperature   298.150 Kelvin.  Pressure   1.00000 Atm.
 Atom     1 has atomic number  6 and mass  12.00000

 Molecular mass:   108.03102 amu.
 Principal axes and moments of inertia in atomic units:
                           1         2         3
     Eigenvalues --   295.821441094.193261390.01469
           X            0.99985  -0.01716   0.00000
           Y            0.01716   0.99985   0.00000
           Z            0.00000   0.00000   1.00000
 This molecule is an asymmetric top.
 Rotational symmetry number  1.
 Rotational temperatures (Kelvin)      0.29279     0.07916     0.06231
 Rotational constants (GHZ):           6.10078     1.64938     1.29836
 Zero-point vibrational energy     157517.2 (Joules/Mol)
                                   37.64751 (Kcal/Mol)
 Warning -- explicit consideration of   7 degrees of freedom as
           vibrations may cause significant error
 Vibrational temperatures:    192.72   227.33   440.35   461.52   636.90
          (Kelvin)            739.77   802.59   967.01  1069.13  1109.94
                             1222.07  1347.91  1447.01  1460.64  1508.45
                             1586.56  1642.85  1909.04  1983.01  2162.88
                             2281.51  3438.91  4614.17  4637.63

 Zero-point correction=                           0.059995 (Hartree/Particle)
 Thermal correction to Energy=                    0.066199
 Thermal correction to Enthalpy=                  0.067143
 Thermal correction to Gibbs Free Energy=         0.029499
 Sum of electronic and zero-point Energies=           -388.831239
 Sum of electronic and thermal Energies=              -388.825035
 Sum of electronic and thermal Enthalpies=            -388.824091
 Sum of electronic and thermal Free Energies=         -388.861735

                     E (Thermal)             CV                S
                      KCal/Mol        Cal/Mol-Kelvin    Cal/Mol-Kelvin
 Total                   41.540             22.109             79.228
 Electronic               0.000              0.000              0.000
 Translational            0.889              2.981             39.948
 Rotational               0.889              2.981             27.600
 Vibrational             39.763             16.148             11.679
 Vibration     1          0.613              1.919              2.889
 Vibration     2          0.621              1.894              2.574
 Vibration     3          0.696              1.662              1.384
 Vibration     4          0.706              1.634              1.306
 Vibration     5          0.802              1.377              0.818
 Vibration     6          0.869              1.219              0.624
 Vibration     7          0.913              1.123              0.528

 Optimization completed.
    -- Stationary point found.
 Normal termination of Gaussian 09 at Mon Mar  5 20:20:30 2018.
