 Gaussian 09, Revision B.01,
 Gaussian 09:  EM64L-G09RevB.01 12-Aug-2010

 -------------------------------------------------
 #p Temperature=298.15 opt freq UB3LYP/aug-cc-pVDZ
 -------------------------------------------------

 --------------------------------------------
 1,2,3-Triazine-5+-UB3LYP-aug-cc-pVDZ-Singlet
 --------------------------------------------
 Symbolic Z-matrix:
 Charge =  1 Multiplicity = 1

 SCF Done:  E(UB3LYP) =  -279.269663330     A.U. after   14 cycles
 SCF Done:  E(UB3LYP) =  -279.308586521     A.U. after   13 cycles
 SCF Done:  E(UB3LYP) =  -279.319971318     A.U. after   13 cycles
 SCF Done:  E(UB3LYP) =  -279.321611868     A.U. after   13 cycles
 SCF Done:  E(UB3LYP) =  -279.322102398     A.U. after   11 cycles
 SCF Done:  E(UB3LYP) =  -279.322139620     A.U. after   11 cycles
 SCF Done:  E(UB3LYP) =  -279.322145619     A.U. after   11 cycles
 SCF Done:  E(UB3LYP) =  -279.322146632     A.U. after   10 cycles
 Optimization completed.
    -- Stationary point found.
 Normal termination of Gaussian 09 at Mon Mar  5 20:42:10 2018.

 ----------------------------------------------------------------------
 #P Geom=AllCheck Guess=TCheck SCRF=Check GenChk UB3LYP/Aug-CC-pVDZ Fre
 q
 ----------------------------------------------------------------------

 1,2,3-Triazine-5+-UB3LYP-aug-cc-pVDZ-Singlet
 --------------------------------------------
 Redundant internal coordinates taken from checkpoint file:
 1.chk,2,3-Triazine-5+-UB3LYP-aug-cc-pVDZ-Singlet.chk
 Charge =  1 Multiplicity = 1

                         Standard orientation:
 ---------------------------------------------------------------------
 Center     Atomic      Atomic             Coordinates (Angstroms)
 Number     Number       Type             X           Y           Z
 ---------------------------------------------------------------------
      1          6           0       -1.221732    0.716057   -0.000672
      2          6           0        0.000087    1.257152    0.000036
      3          6           0        1.221845    0.715973    0.000612
      4          1           0       -2.228921    1.129641   -0.000567
      5          1           0        2.229016    1.129291    0.000673
      6          7           0       -0.000073   -1.223854    0.000031
      7          7           0        1.129602   -0.701997   -0.000783
      8          7           0       -1.129714   -0.701866    0.000757
 ---------------------------------------------------------------------

 SCF Done:  E(UB3LYP) =  -279.322146632     A.U. after    1 cycles

 The electronic state is 1-A.
 Alpha  occ. eigenvalues --  -14.70650 -14.68330 -14.68325 -10.53882 -10.53881
 Alpha  occ. eigenvalues --  -10.52354  -1.39279  -1.21010  -1.12384  -0.99135
 Alpha  occ. eigenvalues --   -0.92792  -0.82151  -0.80037  -0.75007  -0.72804
 Alpha  occ. eigenvalues --   -0.68928  -0.60019  -0.59335  -0.55410  -0.54497
 Alpha virt. eigenvalues --   -0.39315  -0.34455  -0.30321  -0.16137  -0.15351
 Alpha virt. eigenvalues --   -0.13256  -0.12387  -0.10731  -0.10704  -0.10075
 Alpha virt. eigenvalues --   -0.07354  -0.06548  -0.05106  -0.04835  -0.04066

  Beta  occ. eigenvalues --  -14.70650 -14.68330 -14.68325 -10.53882 -10.53881
  Beta  occ. eigenvalues --  -10.52354  -1.39279  -1.21010  -1.12384  -0.99135
  Beta  occ. eigenvalues --   -0.92792  -0.82151  -0.80037  -0.75007  -0.72804
  Beta  occ. eigenvalues --   -0.68928  -0.60019  -0.59335  -0.55410  -0.54497
  Beta virt. eigenvalues --   -0.39315  -0.34455  -0.30321  -0.16137  -0.15351
  Beta virt. eigenvalues --   -0.13256  -0.12387  -0.10731  -0.10704  -0.10075
  Beta virt. eigenvalues --   -0.07354  -0.06548  -0.05106  -0.04835  -0.04066

 Mulliken atomic charges:
              1
     1  C    0.907505
     2  C    0.350778
     3  C    0.908076
     4  H   -0.421183
     5  H   -0.421500
     6  N    0.199909
     7  N   -0.261834
     8  N   -0.261750
 Sum of Mulliken atomic charges =   1.00000

 Dipole moment (field-independent basis, Debye):
    X=              0.0003    Y=              3.5765    Z=              0.0001  Tot=              3.5765
 Quadrupole moment (field-independent basis, Debye-Ang):
   XX=            -19.2779   YY=            -26.3719   ZZ=            -31.0131
   XY=             -0.0009   XZ=              0.0065   YZ=              0.0002

  Exact polarizability:  58.914   0.000  62.497   0.000   0.000  26.883
 Approx polarizability: 128.251   0.002 211.892  -0.013   0.001  40.920

                     1                      2                      3
                     A                      A                      A
 Frequencies --   390.1081               456.8051               456.9711
 Red. masses --     9.2513                 3.4324                 5.7424
 Frc consts  --     0.8295                 0.4220                 0.7065
 IR Inten    --    76.2238                 6.2817                 0.4929

                     4                      5                      6
                     A                      A                      A
 Frequencies --   644.4695               701.9605               768.2331
 Red. masses --    10.2578                 8.7954                11.9383
 Frc consts  --     2.5102                 2.5535                 4.1513
 IR Inten    --     9.3761                90.5478                 1.9710

                     7                      8                      9
                     A                      A                      A
 Frequencies --   853.9328               878.4375               885.0544
 Red. masses --    12.3939                 1.4499                 1.2611
 Frc consts  --     5.3248                 0.6592                 0.5820
 IR Inten    --    18.1918                26.6955                 0.0387

                    10                     11                     12
                     A                      A                      A
 Frequencies --   969.6914              1112.7933              1204.8442
 Red. masses --     6.2306                 1.6162                 1.1222
 Frc consts  --     3.4518                 1.1791                 0.9598
 IR Inten    --    92.5654                22.1877                 3.5807

                    13                     14                     15
                     A                      A                      A
 Frequencies --  1267.1077              1368.5329              1510.0874
 Red. masses --     6.1114                 3.2858                 9.5409
 Frc consts  --     5.7812                 3.6258                12.8187
 IR Inten    --    49.9021                14.7327                 1.0960

                    16                     17                     18
                     A                      A                      A
 Frequencies --  1750.7617              3245.0495              3247.3929
 Red. masses --    10.1706                 1.1016                 1.1023
 Frc consts  --    18.3676                 6.8348                 6.8489
 IR Inten    --    80.9014               129.1536                27.0148

 - Thermochemistry -
 -------------------
 Temperature   298.150 Kelvin.  Pressure   1.00000 Atm.
 Atom     1 has atomic number  6 and mass  12.00000

 Molecular mass:    80.02487 amu.
 Principal axes and moments of inertia in atomic units:
                           1         2         3
     Eigenvalues --   244.79829 291.32814 536.12624
           X            1.00000  -0.00005   0.00003
           Y            0.00005   1.00000   0.00000
           Z           -0.00003   0.00000   1.00000
 This molecule is an asymmetric top.
 Rotational symmetry number  1.
 Rotational temperatures (Kelvin)      0.35382     0.29731     0.16155
 Rotational constants (GHZ):           7.37236     6.19487     3.36626
 Zero-point vibrational energy     129868.0 (Joules/Mol)
                                   31.03920 (Kcal/Mol)
 Warning -- explicit consideration of   3 degrees of freedom as
           vibrations may cause significant error
 Vibrational temperatures:    561.28   657.24   657.48   927.25  1009.96
          (Kelvin)           1105.31  1228.62  1263.87  1273.39  1395.17
                             1601.06  1733.50  1823.08  1969.01  2172.68
                             2518.95  4668.90  4672.27

 Zero-point correction=                           0.049464 (Hartree/Particle)
 Thermal correction to Energy=                    0.053758
 Thermal correction to Enthalpy=                  0.054702
 Thermal correction to Gibbs Free Energy=         0.022197
 Sum of electronic and zero-point Energies=           -279.272683
 Sum of electronic and thermal Energies=              -279.268389
 Sum of electronic and thermal Enthalpies=            -279.267445
 Sum of electronic and thermal Free Energies=         -279.299950

                     E (Thermal)             CV                S
                      KCal/Mol        Cal/Mol-Kelvin    Cal/Mol-Kelvin
 Total                   33.734             15.498             68.413
 Electronic               0.000              0.000              0.000
 Translational            0.889              2.981             39.054
 Rotational               0.889              2.981             25.150
 Vibrational             31.956              9.537              4.208
 Vibration     1          0.758              1.491              1.000
 Vibration     2          0.815              1.346              0.775
 Vibration     3          0.815              1.345              0.775

 Optimization completed.
    -- Stationary point found.
 Normal termination of Gaussian 09 at Mon Mar  5 20:43:40 2018.
