 Gaussian 09, Revision B.01,
 Gaussian 09:  EM64L-G09RevB.01 12-Aug-2010

 -------------------------------------------------
 #p Temperature=298.15 opt freq UB3LYP/aug-cc-pVDZ
 -------------------------------------------------

 --------------------------------------------
 1,2,4-Triazine-6+-UB3LYP-aug-cc-pVDZ-Singlet
 --------------------------------------------
 Symbolic Z-matrix:
 Charge =  1 Multiplicity = 1

 SCF Done:  E(UB3LYP) =  -279.282654153     A.U. after   16 cycles
 SCF Done:  E(UB3LYP) =  -279.332088316     A.U. after   14 cycles
 SCF Done:  E(UB3LYP) =  -279.347872633     A.U. after   14 cycles
 SCF Done:  E(UB3LYP) =  -279.352070847     A.U. after   13 cycles
 SCF Done:  E(UB3LYP) =  -279.353553674     A.U. after   14 cycles
 SCF Done:  E(UB3LYP) =  -279.353950568     A.U. after   14 cycles
 SCF Done:  E(UB3LYP) =  -279.354398809     A.U. after   14 cycles
 SCF Done:  E(UB3LYP) =  -279.354681295     A.U. after   14 cycles
 SCF Done:  E(UB3LYP) =  -279.354744253     A.U. after   11 cycles
 SCF Done:  E(UB3LYP) =  -279.354779908     A.U. after   17 cycles
 SCF Done:  E(UB3LYP) =  -279.354786071     A.U. after   17 cycles
 Optimization completed.
    -- Stationary point found.
 Normal termination of Gaussian 09 at Mon Mar  5 21:35:45 2018.

 ----------------------------------------------------------------------
 #P Geom=AllCheck Guess=TCheck SCRF=Check GenChk UB3LYP/Aug-CC-pVDZ Fre
 q
 ----------------------------------------------------------------------

 1,2,4-Triazine-6+-UB3LYP-aug-cc-pVDZ-Singlet
 --------------------------------------------
 Redundant internal coordinates taken from checkpoint file:
 1.chk,2,4-Triazine-6+-UB3LYP-aug-cc-pVDZ-Singlet.chk
 Charge =  1 Multiplicity = 1

                         Standard orientation:
 ---------------------------------------------------------------------
 Center     Atomic      Atomic             Coordinates (Angstroms)
 Number     Number       Type             X           Y           Z
 ---------------------------------------------------------------------
      1          6           0        0.640650   -1.147301    0.000346
      2          6           0        1.442288    0.042506    0.000243
      3          1           0        2.529486    0.105522   -0.001136
      4          7           0       -0.558224   -1.120885    0.000011
      5          7           0        0.621782    1.063888   -0.000400
      6          7           0       -1.420912   -0.157273   -0.000465
      7          6           0       -0.704565    1.015303    0.000349
      8          1           0       -1.298248    1.931324    0.001485
 ---------------------------------------------------------------------

 SCF Done:  E(UB3LYP) =  -279.354786071     A.U. after    1 cycles

 The electronic state is 1-A.
 Alpha  occ. eigenvalues --  -14.69619 -14.67073 -14.65061 -10.55747 -10.54571
 Alpha  occ. eigenvalues --  -10.54054  -1.36057  -1.22647  -1.14627  -0.99208
 Alpha  occ. eigenvalues --   -0.93763  -0.83020  -0.80185  -0.74512  -0.71715
 Alpha  occ. eigenvalues --   -0.67050  -0.63473  -0.57814  -0.57330  -0.54305
 Alpha virt. eigenvalues --   -0.38984  -0.34133  -0.29707  -0.16014  -0.14850
 Alpha virt. eigenvalues --   -0.13148  -0.12448  -0.10978  -0.10789  -0.08548
 Alpha virt. eigenvalues --   -0.08513  -0.06584  -0.05530  -0.04158  -0.03528

  Beta  occ. eigenvalues --  -14.69619 -14.67073 -14.65061 -10.55747 -10.54571
  Beta  occ. eigenvalues --  -10.54054  -1.36057  -1.22647  -1.14627  -0.99208
  Beta  occ. eigenvalues --   -0.93763  -0.83020  -0.80185  -0.74512  -0.71715
  Beta  occ. eigenvalues --   -0.67050  -0.63473  -0.57814  -0.57330  -0.54305
  Beta virt. eigenvalues --   -0.38984  -0.34133  -0.29707  -0.16014  -0.14850
  Beta virt. eigenvalues --   -0.13148  -0.12448  -0.10978  -0.10789  -0.08548
  Beta virt. eigenvalues --   -0.08513  -0.06584  -0.05530  -0.04158  -0.03528

 Mulliken atomic charges:
              1
     1  C    0.040932
     2  C    0.713642
     3  H   -0.204342
     4  N    0.096424
     5  N   -0.045763
     6  N   -0.028102
     7  C    0.654443
     8  H   -0.227234
 Sum of Mulliken atomic charges =   1.00000

 Dipole moment (field-independent basis, Debye):
    X=              2.2689    Y=              0.4282    Z=              0.0021  Tot=              2.3090
 Quadrupole moment (field-independent basis, Debye-Ang):
   XX=            -22.0599   YY=            -24.6338   ZZ=            -30.7109
   XY=             -4.0150   XZ=             -0.0045   YZ=              0.0029

  Exact polarizability:  58.700  -2.578  57.161   0.009   0.001  26.489
 Approx polarizability: 132.619  -3.544 145.122   0.020  -0.017  40.144

                     1                      2                      3
                     A                      A                      A
 Frequencies --   388.4667               409.9561               488.0758
 Red. masses --    10.6806                 4.1788                 8.1513
 Frc consts  --     0.9496                 0.4138                 1.1441
 IR Inten    --   108.5119                 0.3193                 4.1613

                     4                      5                      6
                     A                      A                      A
 Frequencies --   653.6514               706.0060               831.9158
 Red. masses --     3.8612                10.9959                 9.2814
 Frc consts  --     0.9720                 3.2292                 3.7846
 IR Inten    --    22.9119                11.4180                95.9029

                     7                      8                      9
                     A                      A                      A
 Frequencies --   894.9164               904.7518               943.2646
 Red. masses --     9.6528                 1.3495                 1.4590
 Frc consts  --     4.5548                 0.6509                 0.7649
 IR Inten    --    34.1831                14.3515                 3.5184

                    10                     11                     12
                     A                      A                      A
 Frequencies --  1098.7462              1149.6522              1227.2328
 Red. masses --     6.6605                 1.9594                 7.1605
 Frc consts  --     4.7376                 1.5258                 6.3540
 IR Inten    --    49.6921                23.1788                30.1158

                    13                     14                     15
                     A                      A                      A
 Frequencies --  1272.6736              1368.4576              1473.8053
 Red. masses --     1.2563                 1.9500                 7.0954
 Frc consts  --     1.1988                 2.1516                 9.0804
 IR Inten    --     4.8946                 7.7101                43.7564

                    16                     17                     18
                     A                      A                      A
 Frequencies --  1975.4541              3211.4282              3248.2797
 Red. masses --    12.2423                 1.0957                 1.1043
 Frc consts  --    28.1479                 6.6582                 6.8651
 IR Inten    --    63.2492                61.4231                32.5226

 - Thermochemistry -
 -------------------
 Temperature   298.150 Kelvin.  Pressure   1.00000 Atm.
 Atom     1 has atomic number  6 and mass  12.00000

 Molecular mass:    80.02487 amu.
 Principal axes and moments of inertia in atomic units:
                           1         2         3
     Eigenvalues --   233.56702 293.94318 527.51012
           X            0.99138  -0.13105  -0.00006
           Y            0.13105   0.99138   0.00004
           Z            0.00005  -0.00005   1.00000
 This molecule is an asymmetric top.
 Rotational symmetry number  1.
 Rotational temperatures (Kelvin)      0.37083     0.29466     0.16419
 Rotational constants (GHZ):           7.72687     6.13976     3.42124
 Zero-point vibrational energy     133065.0 (Joules/Mol)
                                   31.80330 (Kcal/Mol)
 Warning -- explicit consideration of   3 degrees of freedom as
           vibrations may cause significant error
 Vibrational temperatures:    558.92   589.83   702.23   940.46  1015.78
          (Kelvin)           1196.94  1287.58  1301.73  1357.15  1580.85
                             1654.09  1765.71  1831.09  1968.90  2120.47
                             2842.23  4620.52  4673.54

 Zero-point correction=                           0.050682 (Hartree/Particle)
 Thermal correction to Energy=                    0.054922
 Thermal correction to Enthalpy=                  0.055866
 Thermal correction to Gibbs Free Energy=         0.023447
 Sum of electronic and zero-point Energies=           -279.304104
 Sum of electronic and thermal Energies=              -279.299864
 Sum of electronic and thermal Enthalpies=            -279.298920
 Sum of electronic and thermal Free Energies=         -279.331339

                     E (Thermal)             CV                S
                      KCal/Mol        Cal/Mol-Kelvin    Cal/Mol-Kelvin
 Total                   34.464             15.048             68.233
 Electronic               0.000              0.000              0.000
 Translational            0.889              2.981             39.054
 Rotational               0.889              2.981             25.097
 Vibrational             32.687              9.086              4.083
 Vibration     1          0.757              1.495              1.006
 Vibration     2          0.774              1.449              0.927
 Vibration     3          0.844              1.276              0.689

 Optimization completed.
    -- Stationary point found.
 Normal termination of Gaussian 09 at Mon Mar  5 21:37:13 2018.
