 Gaussian 09, Revision B.01,
 Gaussian 09:  EM64L-G09RevB.01 12-Aug-2010

 -------------------------------------------------
 #p Temperature=298.15 opt freq UB3LYP/aug-cc-pVDZ
 -------------------------------------------------

 -----------------------------------------------
 1,2,3-Triazine-5-N2+-UB3LYP-aug-cc-pVDZ-Triplet
 -----------------------------------------------
 Symbolic Z-matrix:
 Charge =  1 Multiplicity = 3

 SCF Done:  E(UB3LYP) =  -388.796003070     A.U. after   22 cycles
 SCF Done:  E(UB3LYP) =  -388.834747989     A.U. after   18 cycles
 SCF Done:  E(UB3LYP) =  -388.843948762     A.U. after   19 cycles
 SCF Done:  E(UB3LYP) =  -388.844302244     A.U. after   14 cycles
 SCF Done:  E(UB3LYP) =  -388.844317588     A.U. after   13 cycles
 Optimization completed.
    -- Stationary point found.
 Normal termination of Gaussian 09 at Thu Jan 20 01:14:07 2005.

 ----------------------------------------------------------------------
 #P Geom=AllCheck Guess=TCheck SCRF=Check GenChk UB3LYP/Aug-CC-pVDZ Fre
 q
 ----------------------------------------------------------------------

 1,2,3-Triazine-5-N2+-UB3LYP-aug-cc-pVDZ-Triplet
 -----------------------------------------------
 Redundant internal coordinates taken from checkpoint file:
 1.chk,2,3-Triazine-5-N2+-UB3LYP-aug-cc-pVDZ-Triplet.chk
 Charge =  1 Multiplicity = 3

                         Standard orientation:
 ---------------------------------------------------------------------
 Center     Atomic      Atomic             Coordinates (Angstroms)
 Number     Number       Type             X           Y           Z
 ---------------------------------------------------------------------
      1          6           0       -0.202159   -1.236380   -0.000065
      2          6           0        0.535918    0.000026   -0.000071
      3          6           0       -0.202153    1.236405    0.000059
      4          1           0        0.259662   -2.222830    0.000046
      5          7           0        1.873033    0.000023    0.000140
      6          7           0        3.008188   -0.000045   -0.000096
      7          1           0        0.259686    2.222946    0.000206
      8          7           0       -2.021738   -0.000008   -0.000054
      9          7           0       -1.523238    1.168804   -0.000058
     10          7           0       -1.523243   -1.168833    0.000097
 ---------------------------------------------------------------------

 SCF Done:  E(UB3LYP) =  -388.844317588     A.U. after    1 cycles

 The electronic state is 3-A.
 Alpha  occ. eigenvalues --  -14.71411 -14.70179 -14.68013 -14.64641 -14.64639
 Alpha  occ. eigenvalues --  -10.51717 -10.50386 -10.50384  -1.37054  -1.36420
 Alpha  occ. eigenvalues --   -1.20501  -1.13842  -1.03912  -0.96154  -0.86823
 Alpha  occ. eigenvalues --   -0.82114  -0.77674  -0.74961  -0.72662  -0.70251
 Alpha  occ. eigenvalues --   -0.69512  -0.67488  -0.66667  -0.59259  -0.57230
 Alpha  occ. eigenvalues --   -0.53972  -0.53544  -0.41665
 Alpha virt. eigenvalues --   -0.30064  -0.29306  -0.26343  -0.16284  -0.13712
 Alpha virt. eigenvalues --   -0.12727  -0.12387  -0.11814  -0.10203  -0.07972
 Alpha virt. eigenvalues --   -0.07869  -0.06393  -0.05823  -0.05641  -0.05132

  Beta  occ. eigenvalues --  -14.71402 -14.67802 -14.67217 -14.64139 -14.64136
  Beta  occ. eigenvalues --  -10.51515 -10.50039 -10.50036  -1.35852  -1.34556
  Beta  occ. eigenvalues --   -1.19194  -1.12558  -1.01364  -0.94701  -0.85957
  Beta  occ. eigenvalues --   -0.81303  -0.75212  -0.72584  -0.69800  -0.69619
  Beta  occ. eigenvalues --   -0.68006  -0.66920  -0.62845  -0.57621  -0.53903
  Beta  occ. eigenvalues --   -0.51822
  Beta virt. eigenvalues --   -0.38216  -0.32799  -0.28991  -0.28630  -0.22128
  Beta virt. eigenvalues --   -0.16174  -0.12638  -0.12062  -0.11880  -0.11718
  Beta virt. eigenvalues --   -0.09327  -0.07743  -0.07354  -0.06245  -0.05567

 Mulliken atomic charges:
              1
     1  C    0.861332
     2  C    0.883191
     3  C    0.860906
     4  H   -0.541867
     5  N    0.375825
     6  N   -0.550272
     7  H   -0.541667
     8  N    0.164914
     9  N   -0.256152
    10  N   -0.256210
 Sum of Mulliken atomic charges =   1.00000

 Dipole moment (field-independent basis, Debye):
    X=              1.8902    Y=              0.0002    Z=              0.0002  Tot=              1.8902
 Quadrupole moment (field-independent basis, Debye-Ang):
   XX=            -33.7192   YY=            -32.9167   ZZ=            -41.6952
   XY=              0.0000   XZ=              0.0004   YZ=              0.0007

  Exact polarizability: 114.153   0.000  68.458   0.000   0.000  34.309
 Approx polarizability: 244.732   0.000 123.106  -0.001   0.000  52.345

                     1                      2                      3
                     A                      A                      A
 Frequencies --   144.5257               172.4758               280.8214
 Red. masses --     6.3763                 8.6110                 6.1196
 Frc consts  --     0.0785                 0.1509                 0.2843
 IR Inten    --     5.3854                 6.7941                 0.0958

                     4                      5                      6
                     A                      A                      A
 Frequencies --   356.7593               424.7008               431.1131
 Red. masses --    13.4180                 5.4789                 9.5715
 Frc consts  --     1.0062                 0.5822                 1.0481
 IR Inten    --     0.1171                 0.0000               119.8742

                     7                      8                      9
                     A                      A                      A
 Frequencies --   494.1405               536.8497               625.5497
 Red. masses --    10.6772                 9.9970                 5.5282
 Frc consts  --     1.5361                 1.6976                 1.2745
 IR Inten    --     0.5174                 0.0820                 8.0738

                    10                     11                     12
                     A                      A                      A
 Frequencies --   776.8919               887.2452               917.8603
 Red. masses --    11.3183                 1.4198                 1.2822
 Frc consts  --     4.0249                 0.6585                 0.6365
 IR Inten    --     8.7198                21.4054                 0.0008

                    13                     14                     15
                     A                      A                      A
 Frequencies --   961.7545              1121.9860              1190.5205
 Red. masses --     4.1534                 4.9785                 9.8633
 Frc consts  --     2.2635                 3.6925                 8.2365
 IR Inten    --     6.9151                65.1321               110.3855

                    16                     17                     18
                     A                      A                      A
 Frequencies --  1263.3023              1273.0477              1308.8839
 Red. masses --     2.8070                 1.7110                 4.7956
 Frc consts  --     2.6394                 1.6338                 4.8406
 IR Inten    --     1.3344                 0.7673                18.6242

                    19                     20                     21
                     A                      A                      A
 Frequencies --  1388.6409              1389.2669              1550.9980
 Red. masses --     2.7839                 3.6491                 5.6689
 Frc consts  --     3.1628                 4.1496                 8.0347
 IR Inten    --    24.9805                 0.1009                16.3515

                    22                     23                     24
                     A                      A                      A
 Frequencies --  2171.0663              3224.7192              3225.9666
 Red. masses --    13.9376                 1.0950                 1.0968
 Frc consts  --    38.7067                 6.7090                 6.7252
 IR Inten    --   443.5820                33.6474                 6.5474

 - Thermochemistry -
 -------------------
 Temperature   298.150 Kelvin.  Pressure   1.00000 Atm.
 Atom     1 has atomic number  6 and mass  12.00000

 Molecular mass:   108.03102 amu.
 Principal axes and moments of inertia in atomic units:
                           1         2         3
     Eigenvalues --   303.211991080.682111383.89410
           X            1.00000   0.00000   0.00000
           Y            0.00000   1.00000   0.00000
           Z            0.00000   0.00000   1.00000
 This molecule is an asymmetric top.
 Rotational symmetry number  1.
 Rotational temperatures (Kelvin)      0.28565     0.08015     0.06259
 Rotational constants (GHZ):           5.95208     1.67000     1.30410
 Zero-point vibrational energy     156226.8 (Joules/Mol)
                                   37.33911 (Kcal/Mol)
 Warning -- explicit consideration of   8 degrees of freedom as
           vibrations may cause significant error
 Vibrational temperatures:    207.94   248.15   404.04   513.30   611.05
          (Kelvin)            620.27   710.96   772.41   900.03  1117.77
                             1276.55  1320.59  1383.75  1614.29  1712.89
                             1817.61  1831.63  1883.19  1997.94  1998.84
                             2231.54  3123.68  4639.65  4641.44

 Zero-point correction=                           0.059504 (Hartree/Particle)
 Thermal correction to Energy=                    0.065864
 Thermal correction to Enthalpy=                  0.066808
 Thermal correction to Gibbs Free Energy=         0.027947
 Sum of electronic and zero-point Energies=           -388.784814
 Sum of electronic and thermal Energies=              -388.778454
 Sum of electronic and thermal Enthalpies=            -388.777510
 Sum of electronic and thermal Free Energies=         -388.816370

                     E (Thermal)             CV                S
                      KCal/Mol        Cal/Mol-Kelvin    Cal/Mol-Kelvin
 Total                   41.330             22.584             81.789
 Electronic               0.000              0.000              2.183
 Translational            0.889              2.981             39.948
 Rotational               0.889              2.981             27.608
 Vibrational             39.553             16.623             12.050
 Vibration     1          0.616              1.909              2.743
 Vibration     2          0.626              1.876              2.408
 Vibration     3          0.680              1.709              1.529
 Vibration     4          0.732              1.561              1.136
 Vibration     5          0.787              1.417              0.876
 Vibration     6          0.792              1.402              0.855
 Vibration     7          0.850              1.263              0.673
 Vibration     8          0.892              1.169              0.572

 Optimization completed.
    -- Stationary point found.
 Normal termination of Gaussian 09 at Thu Jan 20 01:18:41 2005.
