 Gaussian 09, Revision B.01,
 Gaussian 09:  EM64L-G09RevB.01 12-Aug-2010

 -------------------------------------------------
 #p Temperature=298.15 opt freq UB3LYP/aug-cc-pVDZ
 -------------------------------------------------

 --------------------------------------------
 1,2,4-Triazine-3+-UB3LYP-aug-cc-pVDZ-Singlet
 --------------------------------------------
 Symbolic Z-matrix:
 Charge =  1 Multiplicity = 1

 SCF Done:  E(UB3LYP) =  -279.273246921     A.U. after   17 cycles
 SCF Done:  E(UB3LYP) =  -279.326346382     A.U. after   14 cycles
 SCF Done:  E(UB3LYP) =  -279.346953289     A.U. after   13 cycles
 SCF Done:  E(UB3LYP) =  -279.351042819     A.U. after   14 cycles
 SCF Done:  E(UB3LYP) =  -279.352740190     A.U. after   13 cycles
 SCF Done:  E(UB3LYP) =  -279.354295011     A.U. after   14 cycles
 SCF Done:  E(UB3LYP) =  -279.354977980     A.U. after   11 cycles
 SCF Done:  E(UB3LYP) =  -279.355134784     A.U. after   12 cycles
 SCF Done:  E(UB3LYP) =  -279.355156065     A.U. after   11 cycles
 SCF Done:  E(UB3LYP) =  -279.355164064     A.U. after   10 cycles
 SCF Done:  E(UB3LYP) =  -279.355166043     A.U. after   10 cycles
 Optimization completed.
    -- Stationary point found.
 Normal termination of Gaussian 09 at Mon Mar  5 21:00:03 2018.

 ----------------------------------------------------------------------
 #P Geom=AllCheck Guess=TCheck SCRF=Check GenChk UB3LYP/Aug-CC-pVDZ Fre
 q
 ----------------------------------------------------------------------

 1,2,4-Triazine-3+-UB3LYP-aug-cc-pVDZ-Singlet
 --------------------------------------------
 Redundant internal coordinates taken from checkpoint file:
 1.chk,2,4-Triazine-3+-UB3LYP-aug-cc-pVDZ-Singlet.chk
 Charge =  1 Multiplicity = 1

                         Standard orientation:
 ---------------------------------------------------------------------
 Center     Atomic      Atomic             Coordinates (Angstroms)
 Number     Number       Type             X           Y           Z
 ---------------------------------------------------------------------
      1          6           0        0.332578   -1.071386   -0.000001
      2          6           0       -0.286484    1.188117    0.000030
      3          1           0       -0.498079    2.261766    0.000011
      4          6           0       -1.339796    0.213084   -0.000052
      5          1           0       -2.410615    0.426985    0.000210
      6          7           0       -0.905975   -1.065028   -0.000010
      7          7           0        1.433242   -0.486421    0.000034
      8          7           0        0.997148    0.884643   -0.000036
 ---------------------------------------------------------------------

 SCF Done:  E(UB3LYP) =  -279.355166043     A.U. after    1 cycles

 The electronic state is 1-A.
 Alpha  occ. eigenvalues --  -14.68093 -14.67778 -14.67354 -10.59441 -10.55393
 Alpha  occ. eigenvalues --  -10.51032  -1.34400  -1.25398  -1.13552  -0.99509
 Alpha  occ. eigenvalues --   -0.92297  -0.82292  -0.79134  -0.74467  -0.72818
 Alpha  occ. eigenvalues --   -0.65373  -0.62219  -0.61047  -0.58515  -0.54834
 Alpha virt. eigenvalues --   -0.36874  -0.36211  -0.28680  -0.17132  -0.15656
 Alpha virt. eigenvalues --   -0.14845  -0.12346  -0.11214  -0.10974  -0.09812
 Alpha virt. eigenvalues --   -0.08723  -0.07275  -0.06887  -0.05622  -0.04733

  Beta  occ. eigenvalues --  -14.68093 -14.67778 -14.67354 -10.59441 -10.55393
  Beta  occ. eigenvalues --  -10.51032  -1.34400  -1.25398  -1.13552  -0.99509
  Beta  occ. eigenvalues --   -0.92297  -0.82292  -0.79134  -0.74467  -0.72818
  Beta  occ. eigenvalues --   -0.65373  -0.62219  -0.61047  -0.58515  -0.54834
  Beta virt. eigenvalues --   -0.36874  -0.36211  -0.28680  -0.17132  -0.15656
  Beta virt. eigenvalues --   -0.14845  -0.12346  -0.11214  -0.10974  -0.09812
  Beta virt. eigenvalues --   -0.08723  -0.07275  -0.06887  -0.05622  -0.04733

 Mulliken atomic charges:
              1
     1  C    0.088198
     2  C    1.057394
     3  H   -0.357735
     4  C    0.629492
     5  H   -0.328487
     6  N    0.098182
     7  N    0.161758
     8  N   -0.348803
 Sum of Mulliken atomic charges =   1.00000

 Dipole moment (field-independent basis, Debye):
    X=             -3.3521    Y=              0.7849    Z=              0.0001  Tot=              3.4427
 Quadrupole moment (field-independent basis, Debye-Ang):
   XX=            -25.7053   YY=            -22.5791   ZZ=            -30.7944
   XY=             -4.3172   XZ=             -0.0004   YZ=              0.0001

  Exact polarizability:  56.684  -1.302  53.652   0.001   0.000  26.599
 Approx polarizability: 124.120   3.224 115.717   0.001  -0.001  40.576

                     1                      2                      3
                     A                      A                      A
 Frequencies --   379.4211               463.4271               499.2576
 Red. masses --     3.9582                11.6703                 9.6902
 Frc consts  --     0.3357                 1.4767                 1.4231
 IR Inten    --     0.0009                 6.8924                15.5603

                     4                      5                      6
                     A                      A                      A
 Frequencies --   638.5947               658.8893               732.6297
 Red. masses --     4.6356                12.4425                10.9587
 Frc consts  --     1.1138                 3.1826                 3.4656
 IR Inten    --     0.0463                24.7759                12.4100

                     7                      8                      9
                     A                      A                      A
 Frequencies --   886.6787               892.8171               982.6142
 Red. masses --     8.0157                 1.2196                 1.5205
 Frc consts  --     3.7130                 0.5728                 0.8650
 IR Inten    --    41.3730                32.5204                 0.0607

                    10                     11                     12
                     A                      A                      A
 Frequencies --  1042.9992              1142.2340              1208.2069
 Red. masses --     2.1218                 4.8867                 1.5977
 Frc consts  --     1.3600                 3.7564                 1.3741
 IR Inten    --     5.0479                12.3582                14.1071

                    13                     14                     15
                     A                      A                      A
 Frequencies --  1338.2945              1369.2800              1486.1275
 Red. masses --     5.3255                 1.7952                 4.6790
 Frc consts  --     5.6197                 1.9832                 6.0886
 IR Inten    --     6.1751                29.8669                51.6331

                    16                     17                     18
                     A                      A                      A
 Frequencies --  1855.6511              3180.6957              3217.6936
 Red. masses --    12.0447                 1.0936                 1.0997
 Frc consts  --    24.4365                 6.5186                 6.7081
 IR Inten    --    99.2491                59.3761                25.9904

 - Thermochemistry -
 -------------------
 Temperature   298.150 Kelvin.  Pressure   1.00000 Atm.
 Atom     1 has atomic number  6 and mass  12.00000

 Molecular mass:    80.02487 amu.
 Principal axes and moments of inertia in atomic units:
                           1         2         3
     Eigenvalues --   237.04904 301.11460 538.16363
           X            0.99206  -0.12580  -0.00001
           Y            0.12580   0.99206   0.00000
           Z            0.00001   0.00000   1.00000
 This molecule is an asymmetric top.
 Rotational symmetry number  1.
 Rotational temperatures (Kelvin)      0.36538     0.28764     0.16094
 Rotational constants (GHZ):           7.61337     5.99354     3.35352
 Zero-point vibrational energy     131442.8 (Joules/Mol)
                                   31.41557 (Kcal/Mol)
 Warning -- explicit consideration of   3 degrees of freedom as
           vibrations may cause significant error
 Vibrational temperatures:    545.90   666.77   718.32   918.79   947.99
          (Kelvin)           1054.09  1275.73  1284.56  1413.76  1500.64
                             1643.42  1738.34  1925.50  1970.09  2138.20
                             2669.86  4576.31  4629.54

 Zero-point correction=                           0.050064 (Hartree/Particle)
 Thermal correction to Energy=                    0.054319
 Thermal correction to Enthalpy=                  0.055263
 Thermal correction to Gibbs Free Energy=         0.022809
 Sum of electronic and zero-point Energies=           -279.305102
 Sum of electronic and thermal Energies=              -279.300847
 Sum of electronic and thermal Enthalpies=            -279.299903
 Sum of electronic and thermal Free Energies=         -279.332357

                     E (Thermal)             CV                S
                      KCal/Mol        Cal/Mol-Kelvin    Cal/Mol-Kelvin
 Total                   34.085             15.238             68.304
 Electronic               0.000              0.000              0.000
 Translational            0.889              2.981             39.054
 Rotational               0.889              2.981             25.155
 Vibrational             32.308              9.276              4.095
 Vibration     1          0.749              1.514              1.041
 Vibration     2          0.821              1.331              0.756
 Vibration     3          0.855              1.252              0.660

 Optimization completed.
    -- Stationary point found.
 Normal termination of Gaussian 09 at Mon Mar  5 21:01:33 2018.
