 Gaussian 09, Revision B.01,
 Gaussian 09:  EM64L-G09RevB.01 12-Aug-2010

 -------------------------------------------------
 #p Temperature=298.15 opt freq UB3LYP/aug-cc-pVDZ
 -------------------------------------------------

 --------------------------------------------
 1,2,4-Triazine-5+-UB3LYP-aug-cc-pVDZ-Triplet
 --------------------------------------------
 Symbolic Z-matrix:
 Charge =  1 Multiplicity = 3

 SCF Done:  E(UB3LYP) =  -279.277667357     A.U. after   19 cycles
 SCF Done:  E(UB3LYP) =  -279.315312136     A.U. after   18 cycles
 SCF Done:  E(UB3LYP) =  -279.321264350     A.U. after   17 cycles
 SCF Done:  E(UB3LYP) =  -279.322020761     A.U. after   15 cycles
 SCF Done:  E(UB3LYP) =  -279.322144359     A.U. after   18 cycles
 SCF Done:  E(UB3LYP) =  -279.322236647     A.U. after   15 cycles
 SCF Done:  E(UB3LYP) =  -279.322245109     A.U. after   14 cycles
 SCF Done:  E(UB3LYP) =  -279.322245899     A.U. after   12 cycles
 Optimization completed.
    -- Stationary point found.
 Normal termination of Gaussian 09 at Thu Jan 20 02:21:35 2005.

 ----------------------------------------------------------------------
 #P Geom=AllCheck Guess=TCheck SCRF=Check GenChk UB3LYP/Aug-CC-pVDZ Fre
 q
 ----------------------------------------------------------------------

 1,2,4-Triazine-5+-UB3LYP-aug-cc-pVDZ-Triplet
 --------------------------------------------
 Redundant internal coordinates taken from checkpoint file:
 1.chk,2,4-Triazine-5+-UB3LYP-aug-cc-pVDZ-Triplet.chk
 Charge =  1 Multiplicity = 3

                         Standard orientation:
 ---------------------------------------------------------------------
 Center     Atomic      Atomic             Coordinates (Angstroms)
 Number     Number       Type             X           Y           Z
 ---------------------------------------------------------------------
      1          6           0        0.335152    1.278359    0.000199
      2          6           0        1.365326    0.311643   -0.000554
      3          1           0        2.436827    0.506282    0.001215
      4          6           0       -1.301118   -0.268505   -0.000109
      5          1           0       -2.335996   -0.604240   -0.000350
      6          7           0       -0.940036    1.009966    0.000048
      7          7           0       -0.307645   -1.198643    0.000190
      8          7           0        0.890969   -0.930040    0.000037
 ---------------------------------------------------------------------

 SCF Done:  E(UB3LYP) =  -279.322245899     A.U. after    1 cycles

 The electronic state is 3-A.
 Alpha  occ. eigenvalues --  -14.70974 -14.70652 -14.63401 -10.55740 -10.53533
 Alpha  occ. eigenvalues --  -10.52701  -1.38456  -1.23104  -1.13307  -0.99460
 Alpha  occ. eigenvalues --   -0.95197  -0.83842  -0.80538  -0.75457  -0.75093
 Alpha  occ. eigenvalues --   -0.66383  -0.63266  -0.61057  -0.59535  -0.57425
 Alpha  occ. eigenvalues --   -0.48101
 Alpha virt. eigenvalues --   -0.33543  -0.31790  -0.15945  -0.15632  -0.13252
 Alpha virt. eigenvalues --   -0.12033  -0.10795  -0.10497  -0.10367  -0.06674
 Alpha virt. eigenvalues --   -0.06672  -0.05995  -0.05118  -0.03840  -0.02804

  Beta  occ. eigenvalues --  -14.69877 -14.69528 -14.63024 -10.55407 -10.52433
  Beta  occ. eigenvalues --  -10.51783  -1.36898  -1.21873  -1.11278  -0.97889
  Beta  occ. eigenvalues --   -0.92499  -0.82201  -0.77416  -0.74492  -0.74446
  Beta  occ. eigenvalues --   -0.62370  -0.61544  -0.57056  -0.56491
  Beta virt. eigenvalues --   -0.44098  -0.32220  -0.31994  -0.30444  -0.15810
  Beta virt. eigenvalues --   -0.13980  -0.13145  -0.11818  -0.10721  -0.09969
  Beta virt. eigenvalues --   -0.09801  -0.06586  -0.06345  -0.05738  -0.04990

 Mulliken atomic charges:
              1
     1  C   -0.054200
     2  C    0.894601
     3  H   -0.217445
     4  C    0.664614
     5  H   -0.237669
     6  N   -0.026107
     7  N    0.003927
     8  N   -0.027721
 Sum of Mulliken atomic charges =   1.00000

 Dipole moment (field-independent basis, Debye):
    X=              0.7149    Y=             -0.3353    Z=              0.0000  Tot=              0.7896
 Quadrupole moment (field-independent basis, Debye-Ang):
   XX=            -17.6075   YY=            -29.2066   ZZ=            -30.7501
   XY=              4.4889   XZ=              0.0039   YZ=              0.0006

  Exact polarizability:  61.539   2.227  51.917  -0.002   0.000  27.523
 Approx polarizability: 117.470   3.131 107.230  -0.013  -0.003  40.987

                     1                      2                      3
                     A                      A                      A
 Frequencies --   294.6159               383.7771               531.1163
 Red. masses --     3.2866                12.1116                12.5002
 Frc consts  --     0.1681                 1.0510                 2.0775
 IR Inten    --    30.9762                 2.2934                28.8837

                     4                      5                      6
                     A                      A                      A
 Frequencies --   684.5789               718.5098               864.2459
 Red. masses --     9.1046                 7.5403                10.5277
 Frc consts  --     2.5140                 2.2935                 4.6330
 IR Inten    --     7.5869                 3.0104                80.2447

                     7                      8                      9
                     A                      A                      A
 Frequencies --   895.4101               945.3485              1015.1188
 Red. masses --     1.3153                 1.2934                 3.5386
 Frc consts  --     0.6213                 0.6811                 2.1484
 IR Inten    --    15.2281                 0.3668                59.9517

                    10                     11                     12
                     A                      A                      A
 Frequencies --  1069.9894              1239.8030              1271.3531
 Red. masses --     5.1221                 1.8437                 1.6442
 Frc consts  --     3.4551                 1.6697                 1.5658
 IR Inten    --     6.9641                32.2882                17.7197

                    13                     14                     15
                     A                      A                      A
 Frequencies --  1311.4534              1444.4279              1483.6031
 Red. masses --     3.6063                 5.0875                 4.0660
 Frc consts  --     3.6544                 6.2538                 5.2730
 IR Inten    --    37.5131                59.2285                16.8855

                    16                     17                     18
                     A                      A                      A
 Frequencies --  1729.2288              3233.7361              3250.8218
 Red. masses --    10.8025                 1.0970                 1.1003
 Frc consts  --    19.0317                 6.7586                 6.8506
 IR Inten    --    71.0147                50.1648                23.0278

 - Thermochemistry -
 -------------------
 Temperature   298.150 Kelvin.  Pressure   1.00000 Atm.
 Atom     1 has atomic number  6 and mass  12.00000

 Molecular mass:    80.02487 amu.
 Principal axes and moments of inertia in atomic units:
                           1         2         3
     Eigenvalues --   243.58862 288.90562 532.49420
           X            0.97728   0.21197   0.00005
           Y           -0.21197   0.97728   0.00001
           Z           -0.00004  -0.00002   1.00000
 This molecule is an asymmetric top.
 Rotational symmetry number  1.
 Rotational temperatures (Kelvin)      0.35557     0.29980     0.16266
 Rotational constants (GHZ):           7.40897     6.24682     3.38922
 Zero-point vibrational energy     133785.2 (Joules/Mol)
                                   31.97543 (Kcal/Mol)
 Warning -- explicit consideration of   3 degrees of freedom as
           vibrations may cause significant error
 Vibrational temperatures:    423.89   552.17   764.16   984.96  1033.77
          (Kelvin)           1243.46  1288.29  1360.14  1460.53  1539.47
                             1783.80  1829.19  1886.89  2078.21  2134.57
                             2487.97  4652.62  4677.20

 Zero-point correction=                           0.050956 (Hartree/Particle)
 Thermal correction to Energy=                    0.055243
 Thermal correction to Enthalpy=                  0.056188
 Thermal correction to Gibbs Free Energy=         0.022579
 Sum of electronic and zero-point Energies=           -279.271290
 Sum of electronic and thermal Energies=              -279.267002
 Sum of electronic and thermal Enthalpies=            -279.266058
 Sum of electronic and thermal Free Energies=         -279.299667

                     E (Thermal)             CV                S
                      KCal/Mol        Cal/Mol-Kelvin    Cal/Mol-Kelvin
 Total                   34.666             14.839             70.735
 Electronic               0.000              0.000              2.183
 Translational            0.889              2.981             39.054
 Rotational               0.889              2.981             25.131
 Vibrational             32.888              8.877              4.368
 Vibration     1          0.689              1.684              1.447
 Vibration     2          0.753              1.505              1.024
 Vibration     3          0.886              1.181              0.585

 Optimization completed.
    -- Stationary point found.
 Normal termination of Gaussian 09 at Thu Jan 20 02:23:06 2005.
