 Gaussian 09, Revision B.01,
 Gaussian 09:  EM64L-G09RevB.01 12-Aug-2010

 -------------------------------------------------
 #p Temperature=298.15 opt freq UB3LYP/aug-cc-pVDZ
 -------------------------------------------------

 --------------------------------------------
 1,2,4-Triazine-5+-UB3LYP-aug-cc-pVDZ-Singlet
 --------------------------------------------
 Symbolic Z-matrix:
 Charge =  1 Multiplicity = 1

 SCF Done:  E(UB3LYP) =  -279.311036134     A.U. after   14 cycles
 SCF Done:  E(UB3LYP) =  -279.363695983     A.U. after   13 cycles
 SCF Done:  E(UB3LYP) =  -279.378849086     A.U. after   13 cycles
 SCF Done:  E(UB3LYP) =  -279.379508371     A.U. after   13 cycles
 SCF Done:  E(UB3LYP) =  -279.379744801     A.U. after   14 cycles
 SCF Done:  E(UB3LYP) =  -279.380065695     A.U. after   12 cycles
 SCF Done:  E(UB3LYP) =  -279.380078540     A.U. after   11 cycles
 SCF Done:  E(UB3LYP) =  -279.380085866     A.U. after   17 cycles
 SCF Done:  E(UB3LYP) =  -279.380087426     A.U. after   17 cycles
 Optimization completed.
    -- Stationary point found.
 Normal termination of Gaussian 09 at Mon Mar  5 21:17:51 2018.

 ----------------------------------------------------------------------
 #P Geom=AllCheck Guess=TCheck SCRF=Check GenChk UB3LYP/Aug-CC-pVDZ Fre
 q
 ----------------------------------------------------------------------

 1,2,4-Triazine-5+-UB3LYP-aug-cc-pVDZ-Singlet
 --------------------------------------------
 Redundant internal coordinates taken from checkpoint file:
 1.chk,2,4-Triazine-5+-UB3LYP-aug-cc-pVDZ-Singlet.chk
 Charge =  1 Multiplicity = 1

                         Standard orientation:
 ---------------------------------------------------------------------
 Center     Atomic      Atomic             Coordinates (Angstroms)
 Number     Number       Type             X           Y           Z
 ---------------------------------------------------------------------
      1          6           0        0.487479    1.178151   -0.000021
      2          6           0        1.433878    0.161958   -0.000058
      3          1           0        2.520345    0.182909   -0.000006
      4          6           0       -1.354129   -0.107300   -0.000030
      5          1           0       -2.435157   -0.229186    0.000036
      6          7           0       -0.730753    1.098904    0.000052
      7          7           0       -0.508143   -1.147586   -0.000056
      8          7           0        0.740531   -1.001400    0.000093
 ---------------------------------------------------------------------

 SCF Done:  E(UB3LYP) =  -279.380087426     A.U. after    1 cycles

 The electronic state is 1-A.
 Alpha  occ. eigenvalues --  -14.68555 -14.66683 -14.66309 -10.56042 -10.54214
 Alpha  occ. eigenvalues --  -10.53846  -1.35561  -1.24309  -1.12557  -0.98871
 Alpha  occ. eigenvalues --   -0.93980  -0.83460  -0.79312  -0.76017  -0.73952
 Alpha  occ. eigenvalues --   -0.63943  -0.62752  -0.61366  -0.57107  -0.52925
 Alpha virt. eigenvalues --   -0.36926  -0.33295  -0.30479  -0.15807  -0.14703
 Alpha virt. eigenvalues --   -0.13389  -0.12041  -0.10775  -0.10555  -0.10360
 Alpha virt. eigenvalues --   -0.06649  -0.06624  -0.06342  -0.05098  -0.04219

  Beta  occ. eigenvalues --  -14.68555 -14.66683 -14.66309 -10.56042 -10.54214
  Beta  occ. eigenvalues --  -10.53846  -1.35561  -1.24309  -1.12557  -0.98871
  Beta  occ. eigenvalues --   -0.93980  -0.83460  -0.79312  -0.76017  -0.73952
  Beta  occ. eigenvalues --   -0.63943  -0.62752  -0.61366  -0.57107  -0.52925
  Beta virt. eigenvalues --   -0.36926  -0.33295  -0.30479  -0.15807  -0.14703
  Beta virt. eigenvalues --   -0.13389  -0.12041  -0.10775  -0.10555  -0.10360
  Beta virt. eigenvalues --   -0.06649  -0.06624  -0.06342  -0.05098  -0.04219

 Mulliken atomic charges:
              1
     1  C   -0.153935
     2  C    0.985376
     3  H   -0.235841
     4  C    0.682300
     5  H   -0.221764
     6  N    0.083861
     7  N    0.006318
     8  N   -0.146315
 Sum of Mulliken atomic charges =   1.00000

 Dipole moment (field-independent basis, Debye):
    X=              0.3007    Y=              1.4031    Z=             -0.0001  Tot=              1.4350
 Quadrupole moment (field-independent basis, Debye-Ang):
   XX=            -15.2361   YY=            -30.5895   ZZ=            -30.7126
   XY=              2.0198   XZ=             -0.0002   YZ=             -0.0001

  Exact polarizability:  60.115   2.430  58.848   0.000   0.000  26.196
 Approx polarizability: 120.909   8.962 188.602   0.000  -0.002  39.771

                     1                      2                      3
                     A                      A                      A
 Frequencies --   439.2674               547.6972               617.5600
 Red. masses --     2.7103                11.9274                12.2123
 Frc consts  --     0.3081                 2.1080                 2.7441
 IR Inten    --    20.0682                 1.7112                24.6485

                     4                      5                      6
                     A                      A                      A
 Frequencies --   670.9629               672.2474               845.8873
 Red. masses --    10.6760                 9.5552                11.0866
 Frc consts  --     2.8318                 2.5442                 4.6738
 IR Inten    --     2.0083                 9.3474                48.7486

                     7                      8                      9
                     A                      A                      A
 Frequencies --   869.7517               873.8372               943.9987
 Red. masses --     1.3560                 6.4574                 1.3009
 Frc consts  --     0.6044                 2.9052                 0.6830
 IR Inten    --    14.6183                27.3328                 4.2624

                    10                     11                     12
                     A                      A                      A
 Frequencies --  1101.4374              1177.5489              1201.2322
 Red. masses --     6.6629                 1.5393                 6.3347
 Frc consts  --     4.7625                 1.2576                 5.3856
 IR Inten    --    11.0893               140.2026                 8.0040

                    13                     14                     15
                     A                      A                      A
 Frequencies --  1271.5755              1311.3172              1456.1597
 Red. masses --     1.2942                 5.0490                 3.5037
 Frc consts  --     1.2329                 5.1153                 4.3772
 IR Inten    --    14.4409               104.2586               169.1941

                    16                     17                     18
                     A                      A                      A
 Frequencies --  1939.0479              3263.2956              3274.1098
 Red. masses --    11.7614                 1.1026                 1.1045
 Frc consts  --    26.0548                 6.9178                 6.9757
 IR Inten    --    28.2381                41.6836                46.1388

 - Thermochemistry -
 -------------------
 Temperature   298.150 Kelvin.  Pressure   1.00000 Atm.
 Atom     1 has atomic number  6 and mass  12.00000

 Molecular mass:    80.02487 amu.
 Principal axes and moments of inertia in atomic units:
                           1         2         3
     Eigenvalues --   237.53705 288.36666 525.90371
           X            0.99745   0.07142   0.00000
           Y           -0.07142   0.99745   0.00000
           Z            0.00000   0.00000   1.00000
 This molecule is an asymmetric top.
 Rotational symmetry number  1.
 Rotational temperatures (Kelvin)      0.36463     0.30036     0.16470
 Rotational constants (GHZ):           7.59773     6.25849     3.43170
 Zero-point vibrational energy     134441.9 (Joules/Mol)
                                   32.13239 (Kcal/Mol)
 Warning -- explicit consideration of   3 degrees of freedom as
           vibrations may cause significant error
 Vibrational temperatures:    632.01   788.01   888.53   965.36   967.21
          (Kelvin)           1217.04  1251.38  1257.26  1358.20  1584.72
                             1694.23  1728.30  1829.51  1886.69  2095.09
                             2789.85  4695.15  4710.71

 Zero-point correction=                           0.051206 (Hartree/Particle)
 Thermal correction to Energy=                    0.055224
 Thermal correction to Enthalpy=                  0.056169
 Thermal correction to Gibbs Free Energy=         0.024121
 Sum of electronic and zero-point Energies=           -279.328881
 Sum of electronic and thermal Energies=              -279.324863
 Sum of electronic and thermal Enthalpies=            -279.323919
 Sum of electronic and thermal Free Energies=         -279.355967

                     E (Thermal)             CV                S
                      KCal/Mol        Cal/Mol-Kelvin    Cal/Mol-Kelvin
 Total                   34.654             14.465             67.450
 Electronic               0.000              0.000              0.000
 Translational            0.889              2.981             39.054
 Rotational               0.889              2.981             25.091
 Vibrational             32.876              8.504              3.305
 Vibration     1          0.799              1.385              0.829
 Vibration     2          0.903              1.145              0.549
 Vibration     3          0.977              0.995              0.420

 Optimization completed.
    -- Stationary point found.
 Normal termination of Gaussian 09 at Mon Mar  5 21:19:19 2018.
