 Gaussian 09, Revision B.01,
 Gaussian 09:  EM64L-G09RevB.01 12-Aug-2010

 -------------------------------------------------
 #p Temperature=298.15 opt freq UB3LYP/aug-cc-pVDZ
 -------------------------------------------------

 ---------------------------------------------
 1,2,3-Triazine-5-N2-UB3LYP-aug-cc-pVDZ-Duplet
 ---------------------------------------------
 Symbolic Z-matrix:
 Charge =  0 Multiplicity = 2

 SCF Done:  E(UB3LYP) =  -389.152037720     A.U. after   21 cycles
 SCF Done:  E(UB3LYP) =  -389.171075777     A.U. after   21 cycles
 SCF Done:  E(UB3LYP) =  -389.173651032     A.U. after   21 cycles
 SCF Done:  E(UB3LYP) =  -389.173752445     A.U. after   23 cycles
 SCF Done:  E(UB3LYP) =  -389.173759166     A.U. after   12 cycles
 Optimization completed.
    -- Stationary point found.
 Normal termination of Gaussian 09 at Mon Mar  5 20:42:10 2018.

 ----------------------------------------------------------------------
 #P Geom=AllCheck Guess=TCheck SCRF=Check GenChk UB3LYP/Aug-CC-pVDZ Fre
 q
 ----------------------------------------------------------------------

 1,2,3-Triazine-5-N2-UB3LYP-aug-cc-pVDZ-Duplet
 ---------------------------------------------
 Redundant internal coordinates taken from checkpoint file:
 1.chk,2,3-Triazine-5-N2-UB3LYP-aug-cc-pVDZ-Duplet.chk
 Charge =  0 Multiplicity = 2

                         Standard orientation:
 ---------------------------------------------------------------------
 Center     Atomic      Atomic             Coordinates (Angstroms)
 Number     Number       Type             X           Y           Z
 ---------------------------------------------------------------------
      1          6           0       -0.192481   -1.201791    0.000073
      2          6           0        0.575170    0.000021    0.000054
      3          6           0       -0.192472    1.201794    0.000090
      4          1           0        0.280865   -2.184268    0.000218
      5          7           0        1.903734   -0.000022    0.000522
      6          7           0        3.057258    0.000012   -0.000487
      7          1           0        0.280850    2.184373    0.000198
      8          7           0       -2.183938    0.000022   -0.000079
      9          7           0       -1.510186    1.161713   -0.000106
     10          7           0       -1.510156   -1.161760   -0.000096
 ---------------------------------------------------------------------

 SCF Done:  E(UB3LYP) =  -389.173759166     A.U. after    1 cycles

 The electronic state is 2-A.
 Alpha  occ. eigenvalues --  -14.51240 -14.47517 -14.41334 -14.39415 -14.39412
 Alpha  occ. eigenvalues --  -10.31259 -10.28009 -10.28007  -1.16003  -1.07983
 Alpha  occ. eigenvalues --   -0.93415  -0.93225  -0.81508  -0.71308  -0.66031
 Alpha  occ. eigenvalues --   -0.59304  -0.55358  -0.54742  -0.51176  -0.49890
 Alpha  occ. eigenvalues --   -0.47180  -0.46102  -0.39355  -0.36143  -0.35668
 Alpha  occ. eigenvalues --   -0.28352  -0.28096  -0.21474
 Alpha virt. eigenvalues --   -0.11099  -0.08138  -0.05862  -0.02198  -0.00020
 Alpha virt. eigenvalues --    0.02241   0.02737   0.03500   0.05329   0.05901
 Alpha virt. eigenvalues --    0.06858   0.06880   0.07431   0.08289   0.08742

  Beta  occ. eigenvalues --  -14.50986 -14.46574 -14.40664 -14.39594 -14.39591
  Beta  occ. eigenvalues --  -10.31296 -10.27734 -10.27731  -1.14898  -1.07466
  Beta  occ. eigenvalues --   -0.93378  -0.92343  -0.80372  -0.70977  -0.65746
  Beta  occ. eigenvalues --   -0.59111  -0.54966  -0.51931  -0.49485  -0.49386
  Beta  occ. eigenvalues --   -0.45882  -0.45575  -0.39276  -0.35538  -0.32902
  Beta  occ. eigenvalues --   -0.28486  -0.27527
  Beta virt. eigenvalues --   -0.12779  -0.10230  -0.07625  -0.02607  -0.02147
  Beta virt. eigenvalues --   -0.00006   0.02296   0.02929   0.03542   0.05328
  Beta virt. eigenvalues --    0.05897   0.07077   0.07278   0.07517   0.08298

 Mulliken atomic charges:
              1
     1  C    0.887270
     2  C    0.598693
     3  C    0.886963
     4  H   -0.622300
     5  N    0.364791
     6  N   -0.704093
     7  H   -0.622134
     8  N   -0.274000
     9  N   -0.257558
    10  N   -0.257633
 Sum of Mulliken atomic charges =   0.00000

 Dipole moment (field-independent basis, Debye):
    X=              4.3713    Y=              0.0000    Z=              0.0011  Tot=              4.3713
 Quadrupole moment (field-independent basis, Debye-Ang):
   XX=            -59.7373   YY=            -43.0543   ZZ=            -44.8398
   XY=             -0.0003   XZ=              0.0010   YZ=              0.0000

  Exact polarizability: 132.311   0.000  70.477  -0.004   0.000  40.936
 Approx polarizability: 277.449  -0.002 117.439  -0.009   0.000  62.527

                     1                      2                      3
                     A                      A                      A
 Frequencies --    90.5388               130.3465               162.6377
 Red. masses --    12.0362                 5.9677                 8.8019
 Frc consts  --     0.0581                 0.0597                 0.1372
 IR Inten    --     6.7410                 6.0548                 7.4278

                     4                      5                      6
                     A                      A                      A
 Frequencies --   375.4208               397.5926               475.1056
 Red. masses --     5.9755                 4.9829                10.3271
 Frc consts  --     0.4962                 0.4641                 1.3734
 IR Inten    --     0.0563                 0.0000                 1.5447

                     7                      8                      9
                     A                      A                      A
 Frequencies --   533.0047               659.7623               729.5340
 Red. masses --     8.7910                10.3917                 5.8037
 Frc consts  --     1.4715                 2.6651                 1.8199
 IR Inten    --     4.3842                 4.2535                 4.0619

                    10                     11                     12
                     A                      A                      A
 Frequencies --   804.8162               860.8765               890.0451
 Red. masses --    10.8136                 1.4501                10.5186
 Frc consts  --     4.1268                 0.6332                 4.9095
 IR Inten    --     5.3273                15.3556                 0.2921

                    13                     14                     15
                     A                      A                      A
 Frequencies --   892.4087              1017.3981              1039.4823
 Red. masses --     1.3125                 3.3525                 9.7441
 Frc consts  --     0.6158                 2.0446                 6.2034
 IR Inten    --     0.0004                16.1654                12.3937

                    16                     17                     18
                     A                      A                      A
 Frequencies --  1250.0304              1254.6839              1385.6097
 Red. masses --     3.0076                 1.7791                 3.7624
 Frc consts  --     2.7689                 1.6501                 4.2560
 IR Inten    --    14.2082                 4.8270                 3.6358

                    19                     20                     21
                     A                      A                      A
 Frequencies --  1386.3731              1441.5758              1511.4717
 Red. masses --     2.8689                 4.1432                 4.1566
 Frc consts  --     3.2488                 5.0730                 5.5948
 IR Inten    --     0.0077                 9.9104                14.1465

                    22                     23                     24
                     A                      A                      A
 Frequencies --  2129.3122              3185.3254              3186.3073
 Red. masses --    13.8936                 1.0927                 1.0918
 Frc consts  --    37.1145                 6.5320                 6.5309
 IR Inten    --   400.8806                 0.8701                 1.0896

 - Thermochemistry -
 -------------------
 Temperature   298.150 Kelvin.  Pressure   1.00000 Atm.
 Atom     1 has atomic number  6 and mass  12.00000

 Molecular mass:   108.03102 amu.
 Principal axes and moments of inertia in atomic units:
                           1         2         3
     Eigenvalues --   293.107631133.132641426.24021
           X            1.00000   0.00000   0.00000
           Y            0.00000   1.00000   0.00000
           Z            0.00000   0.00000   1.00000
 This molecule is an asymmetric top.
 Rotational symmetry number  1.
 Rotational temperatures (Kelvin)      0.29550     0.07644     0.06073
 Rotational constants (GHZ):           6.15726     1.59270     1.26538
 Zero-point vibrational energy     154256.4 (Joules/Mol)
                                   36.86817 (Kcal/Mol)
 Warning -- explicit consideration of   7 degrees of freedom as
           vibrations may cause significant error
 Vibrational temperatures:    130.26   187.54   234.00   540.15   572.05
          (Kelvin)            683.57   766.87   949.25  1049.64  1157.95
                             1238.61  1280.57  1283.98  1463.81  1495.58
                             1798.51  1805.21  1993.58  1994.68  2074.10
                             2174.67  3063.60  4582.97  4584.38

 Zero-point correction=                           0.058753 (Hartree/Particle)
 Thermal correction to Energy=                    0.065331
 Thermal correction to Enthalpy=                  0.066275
 Thermal correction to Gibbs Free Energy=         0.026838
 Sum of electronic and zero-point Energies=           -389.115006
 Sum of electronic and thermal Energies=              -389.108428
 Sum of electronic and thermal Enthalpies=            -389.107484
 Sum of electronic and thermal Free Energies=         -389.146922

                     E (Thermal)             CV                S
                      KCal/Mol        Cal/Mol-Kelvin    Cal/Mol-Kelvin
 Total                   40.996             22.547             83.003
 Electronic               0.000              0.000              1.377
 Translational            0.889              2.981             39.948
 Rotational               0.889              2.981             27.651
 Vibrational             39.218             16.586             14.026
 Vibration     1          0.602              1.956              3.648
 Vibration     2          0.612              1.923              2.941
 Vibration     3          0.623              1.888              2.519
 Vibration     4          0.746              1.522              1.058
 Vibration     5          0.764              1.475              0.972
 Vibration     6          0.832              1.305              0.723
 Vibration     7          0.888              1.177              0.581

 Optimization completed.
    -- Stationary point found.
 Normal termination of Gaussian 09 at Mon Mar  5 20:46:59 2018.
