 Gaussian 09, Revision B.01,
 Gaussian 09:  EM64L-G09RevB.01 12-Aug-2010

 -------------------------------------------------
 #p Temperature=298.15 opt freq UB3LYP/aug-cc-pVDZ
 -------------------------------------------------

 --------------------------------------------
 1,2,3-Triazine-4+-UB3LYP-aug-cc-pVDZ-Triplet
 --------------------------------------------
 Symbolic Z-matrix:
 Charge =  1 Multiplicity = 3

 SCF Done:  E(UB3LYP) =  -279.239380503     A.U. after   38 cycles
 SCF Done:  E(UB3LYP) =  -279.263974749     A.U. after   26 cycles
 SCF Done:  E(UB3LYP) =  -279.269446688     A.U. after   21 cycles
 SCF Done:  E(UB3LYP) =  -279.273214940     A.U. after   19 cycles
 SCF Done:  E(UB3LYP) =  -279.210495699     A.U. after   18 cycles
 SCF Done:  E(UB3LYP) =  -279.276503367     A.U. after   19 cycles
 SCF Done:  E(UB3LYP) =  -279.280505663     A.U. after   19 cycles
 SCF Done:  E(UB3LYP) =  -279.287900486     A.U. after   19 cycles
 SCF Done:  E(UB3LYP) =  -279.295763584     A.U. after   19 cycles
 SCF Done:  E(UB3LYP) =  -279.286312857     A.U. after   17 cycles
 SCF Done:  E(UB3LYP) =  -279.296019103     A.U. after   18 cycles
 SCF Done:  E(UB3LYP) =  -279.300513063     A.U. after   18 cycles
 SCF Done:  E(UB3LYP) =  -279.300383700     A.U. after   18 cycles
 SCF Done:  E(UB3LYP) =  -279.300664281     A.U. after   18 cycles
 SCF Done:  E(UB3LYP) =  -279.300641648     A.U. after   19 cycles
 SCF Done:  E(UB3LYP) =  -279.300737734     A.U. after   15 cycles
 SCF Done:  E(UB3LYP) =  -279.300750918     A.U. after   19 cycles
 SCF Done:  E(UB3LYP) =  -279.300758561     A.U. after   14 cycles
 SCF Done:  E(UB3LYP) =  -279.300762495     A.U. after   19 cycles
 Optimization completed.
    -- Stationary point found.
 Normal termination of Gaussian 09 at Tue Feb 22 01:14:50 2005.

 ----------------------------------------------------------------------
 #P Geom=AllCheck Guess=TCheck SCRF=Check GenChk UB3LYP/Aug-CC-pVDZ Fre
 q
 ----------------------------------------------------------------------

 1,2,3-Triazine-4+-UB3LYP-aug-cc-pVDZ-Triplet
 --------------------------------------------
 Redundant internal coordinates taken from checkpoint file:
 /home/ubuntu/g09/Gau-9135.chk
 Charge =  1 Multiplicity = 3

                         Standard orientation:
 ---------------------------------------------------------------------
 Center     Atomic      Atomic             Coordinates (Angstroms)
 Number     Number       Type             X           Y           Z
 ---------------------------------------------------------------------
      1          6           0        0.295652    1.336907    0.000004
      2          6           0       -1.022942    0.883264    0.000000
      3          6           0       -1.188011   -0.506492   -0.000017
      4          1           0       -2.153576   -1.013725    0.000022
      5          1           0       -1.878727    1.561336    0.000033
      6          7           0        1.297687    0.493992   -0.000011
      7          7           0        1.006489   -0.723209    0.000011
      8          7           0       -0.086446   -1.317881    0.000003
 ---------------------------------------------------------------------

 SCF Done:  E(UB3LYP) =  -279.300762495     A.U. after    1 cycles

 The electronic state is 3-A.
 Alpha  occ. eigenvalues --  -14.75638 -14.69625 -14.68413 -10.54421 -10.52746
 Alpha  occ. eigenvalues --  -10.49519  -1.42253  -1.24455  -1.12340  -0.99064
 Alpha  occ. eigenvalues --   -0.97100  -0.82695  -0.79615  -0.77659  -0.71953
 Alpha  occ. eigenvalues --   -0.70323  -0.61679  -0.61621  -0.58733  -0.56770
 Alpha  occ. eigenvalues --   -0.52125
 Alpha virt. eigenvalues --   -0.33640  -0.32516  -0.16355  -0.15762  -0.13293
 Alpha virt. eigenvalues --   -0.12153  -0.10971  -0.09593  -0.09243  -0.08365
 Alpha virt. eigenvalues --   -0.06220  -0.05741  -0.04954  -0.04075  -0.02699

  Beta  occ. eigenvalues --  -14.73953 -14.68763 -14.67951 -10.52608 -10.52498
  Beta  occ. eigenvalues --  -10.49448  -1.40503  -1.22948  -1.10330  -0.96511
  Beta  occ. eigenvalues --   -0.95443  -0.80947  -0.76589  -0.76282  -0.70188
  Beta  occ. eigenvalues --   -0.66673  -0.60683  -0.57933  -0.56846
  Beta virt. eigenvalues --   -0.42292  -0.35710  -0.32354  -0.30865  -0.16232
  Beta virt. eigenvalues --   -0.14062  -0.13006  -0.11863  -0.10905  -0.09402
  Beta virt. eigenvalues --   -0.08990  -0.07759  -0.06117  -0.05687  -0.04462

 Mulliken atomic charges:
              1
     1  C   -0.114676
     2  C    1.337425
     3  C    0.586368
     4  H   -0.390223
     5  H   -0.390897
     6  N   -0.128812
     7  N    0.168273
     8  N   -0.067459
 Sum of Mulliken atomic charges =   1.00000

 Dipole moment (field-independent basis, Debye):
    X=             -2.7230    Y=              1.0162    Z=              0.0000  Tot=              2.9064
 Quadrupole moment (field-independent basis, Debye-Ang):
   XX=            -21.0334   YY=            -26.3598   ZZ=            -30.8673
   XY=             -1.0998   XZ=             -0.0001   YZ=              0.0001

  Exact polarizability:  54.845   2.180  56.352   0.000   0.000  27.271
 Approx polarizability: 106.324   8.829 116.564   0.000   0.000  40.896

                     1                      2                      3
                     A                      A                      A
 Frequencies --   369.3153               409.5886               557.6235
 Red. masses --     4.3875                 8.6754                10.5799
 Frc consts  --     0.3526                 0.8575                 1.9383
 IR Inten    --     0.2286                 2.1954                46.6724

                     4                      5                      6
                     A                      A                      A
 Frequencies --   631.3999               705.0459               836.7775
 Red. masses --     5.1149                 9.2766                 1.2274
 Frc consts  --     1.2014                 2.7169                 0.5063
 IR Inten    --     0.1423                 0.5767                27.6378

                     7                      8                      9
                     A                      A                      A
 Frequencies --   903.1190               988.1024              1060.8602
 Red. masses --    10.3793                 1.4433                 3.6138
 Frc consts  --     4.9878                 0.8302                 2.3962
 IR Inten    --    12.1095                 0.1087                 8.4047

                    10                     11                     12
                     A                      A                      A
 Frequencies --  1114.3212              1147.2611              1257.7325
 Red. masses --     1.8853                 2.2392                 4.3546
 Frc consts  --     1.3793                 1.7365                 4.0586
 IR Inten    --    14.2583                 5.0834                55.0634

                    13                     14                     15
                     A                      A                      A
 Frequencies --  1380.7259              1405.6236              1519.7668
 Red. masses --     3.2596                 2.2800                 8.8351
 Frc consts  --     3.6612                 2.6541                12.0231
 IR Inten    --     9.7198                 9.2097               124.0132

                    16                     17                     18
                     A                      A                      A
 Frequencies --  1570.2412              3202.0956              3222.1625
 Red. masses --    12.5499                 1.0930                 1.0984
 Frc consts  --    18.2316                 6.6033                 6.7188
 IR Inten    --   107.5212                51.2154                34.2140

 - Thermochemistry -
 -------------------
 Temperature   298.150 Kelvin.  Pressure   1.00000 Atm.
 Atom     1 has atomic number  6 and mass  12.00000

 Molecular mass:    80.02487 amu.
 Principal axes and moments of inertia in atomic units:
                           1         2         3
     Eigenvalues --   258.17074 273.49954 531.67028
           X            0.98313  -0.18290   0.00000
           Y            0.18290   0.98313   0.00000
           Z            0.00000   0.00000   1.00000
 This molecule is an asymmetric top.
 Rotational symmetry number  1.
 Rotational temperatures (Kelvin)      0.33549     0.31669     0.16291
 Rotational constants (GHZ):           6.99049     6.59870     3.39447
 Zero-point vibrational energy     133274.5 (Joules/Mol)
                                   31.85338 (Kcal/Mol)
 Warning -- explicit consideration of   3 degrees of freedom as
           vibrations may cause significant error
 Vibrational temperatures:    531.36   589.31   802.29   908.44  1014.40
          (Kelvin)           1203.93  1299.39  1421.66  1526.34  1603.26
                             1650.65  1809.59  1986.55  2022.38  2186.60
                             2259.22  4607.10  4635.97

 Zero-point correction=                           0.050762 (Hartree/Particle)
 Thermal correction to Energy=                    0.054944
 Thermal correction to Enthalpy=                  0.055888
 Thermal correction to Gibbs Free Energy=         0.022489
 Sum of electronic and zero-point Energies=           -279.250001
 Sum of electronic and thermal Energies=              -279.245818
 Sum of electronic and thermal Enthalpies=            -279.244874
 Sum of electronic and thermal Free Energies=         -279.278274

                     E (Thermal)             CV                S
                      KCal/Mol        Cal/Mol-Kelvin    Cal/Mol-Kelvin
 Total                   34.478             14.674             70.295
 Electronic               0.000              0.000              2.183
 Translational            0.889              2.981             39.054
 Rotational               0.889              2.981             25.132
 Vibrational             32.701              8.712              3.926
 Vibration     1          0.742              1.535              1.083
 Vibration     2          0.774              1.449              0.928
 Vibration     3          0.913              1.123              0.529

 Optimization completed.
    -- Stationary point found.
 Normal termination of Gaussian 09 at Tue Feb 22 01:16:23 2005.
