 Gaussian 09, Revision B.01,
 Gaussian 09:  EM64L-G09RevB.01 12-Aug-2010

 -------------------------------------------------
 #p Temperature=298.15 opt freq UB3LYP/aug-cc-pVDZ
 -------------------------------------------------

 --------------------------------------------
 1,2,3-Triazine-4+-UB3LYP-aug-cc-pVDZ-Singlet
 --------------------------------------------
 Symbolic Z-matrix:
 Charge =  1 Multiplicity = 1

 SCF Done:  E(UB3LYP) =  -279.266643801     A.U. after   15 cycles
 SCF Done:  E(UB3LYP) =  -279.315791484     A.U. after   14 cycles
 SCF Done:  E(UB3LYP) =  -279.336481797     A.U. after   14 cycles
 SCF Done:  E(UB3LYP) =  -279.340917292     A.U. after   14 cycles
 SCF Done:  E(UB3LYP) =  -279.346682841     A.U. after   13 cycles
 SCF Done:  E(UB3LYP) =  -279.365760718     A.U. after   14 cycles
 SCF Done:  E(UB3LYP) =  -279.383071124     A.U. after   14 cycles
 SCF Done:  E(UB3LYP) =  -279.395147505     A.U. after   15 cycles
 SCF Done:  E(UB3LYP) =  -279.402660187     A.U. after   14 cycles
 SCF Done:  E(UB3LYP) =  -279.405326712     A.U. after   14 cycles
 SCF Done:  E(UB3LYP) =  -279.416302317     A.U. after   11 cycles
 SCF Done:  E(UB3LYP) =  -279.416373367     A.U. after   10 cycles
 SCF Done:  E(UB3LYP) =  -279.416682602     A.U. after   11 cycles
 SCF Done:  E(UB3LYP) =  -279.416727534     A.U. after   11 cycles
 SCF Done:  E(UB3LYP) =  -279.416742044     A.U. after   16 cycles
 SCF Done:  E(UB3LYP) =  -279.416745961     A.U. after   10 cycles
 SCF Done:  E(UB3LYP) =  -279.416751348     A.U. after   10 cycles
 SCF Done:  E(UB3LYP) =  -279.416754116     A.U. after   16 cycles
 SCF Done:  E(UB3LYP) =  -279.416754976     A.U. after   10 cycles
 Optimization completed.
    -- Stationary point found.
 Normal termination of Gaussian 09 at Tue Feb 22 01:03:31 2005.

 ----------------------------------------------------------------------
 #P Geom=AllCheck Guess=TCheck SCRF=Check GenChk UB3LYP/Aug-CC-pVDZ Fre
 q
 ----------------------------------------------------------------------

 1,2,3-Triazine-4+-UB3LYP-aug-cc-pVDZ-Singlet
 --------------------------------------------
 Redundant internal coordinates taken from checkpoint file:
 /home/ubuntu/g09/Gau-7307.chk
 Charge =  1 Multiplicity = 1

                         Standard orientation:
 ---------------------------------------------------------------------
 Center     Atomic      Atomic             Coordinates (Angstroms)
 Number     Number       Type             X           Y           Z
 ---------------------------------------------------------------------
      1          6           0        1.469560   -0.079938    0.000620
      2          6           0        0.649387    1.074790   -0.000280
      3          6           0       -0.706536    1.054485   -0.000119
      4          1           0       -1.371188    1.918555   -0.000435
      5          1           0        1.136410    2.055035   -0.001175
      6          7           0        2.130825   -1.038579   -0.000262
      7          7           0       -1.935635   -1.121834   -0.000678
      8          7           0       -1.372290   -0.163817    0.000981
 ---------------------------------------------------------------------

 SCF Done:  E(UB3LYP) =  -279.416754976     A.U. after    1 cycles

 The electronic state is 1-A.
 Alpha  occ. eigenvalues --  -14.77545 -14.74585 -14.57284 -10.53768 -10.51850
 Alpha  occ. eigenvalues --  -10.45177  -1.43160  -1.15702  -1.12725  -1.00920
 Alpha  occ. eigenvalues --   -0.86081  -0.80420  -0.77858  -0.74899  -0.71713
 Alpha  occ. eigenvalues --   -0.70651  -0.61360  -0.57832  -0.55626  -0.53592
 Alpha virt. eigenvalues --   -0.36502  -0.32753  -0.24872  -0.20487  -0.16528
 Alpha virt. eigenvalues --   -0.14482  -0.13988  -0.12254  -0.12160  -0.10713
 Alpha virt. eigenvalues --   -0.08968  -0.07699  -0.06797  -0.06258  -0.05537

  Beta  occ. eigenvalues --  -14.77545 -14.74585 -14.57284 -10.53768 -10.51850
  Beta  occ. eigenvalues --  -10.45177  -1.43160  -1.15702  -1.12725  -1.00920
  Beta  occ. eigenvalues --   -0.86081  -0.80420  -0.77858  -0.74899  -0.71713
  Beta  occ. eigenvalues --   -0.70651  -0.61360  -0.57832  -0.55626  -0.53592
  Beta virt. eigenvalues --   -0.36502  -0.32753  -0.24872  -0.20487  -0.16528
  Beta virt. eigenvalues --   -0.14482  -0.13988  -0.12254  -0.12160  -0.10713
  Beta virt. eigenvalues --   -0.08968  -0.07699  -0.06797  -0.06258  -0.05537

 Mulliken atomic charges:
              1
     1  C   -0.307418
     2  C    0.994942
     3  C    1.167437
     4  H   -0.392243
     5  H   -0.482360
     6  N   -0.054953
     7  N   -0.435134
     8  N    0.509728
 Sum of Mulliken atomic charges =   1.00000

 Dipole moment (field-independent basis, Debye):
    X=             -3.6947    Y=              4.1910    Z=              0.0004  Tot=              5.5871
 Quadrupole moment (field-independent basis, Debye-Ang):
   XX=            -22.8328   YY=            -23.2992   ZZ=            -31.1428
   XY=              3.5962   XZ=             -0.0006   YZ=             -0.0039

  Exact polarizability:  73.995  -0.198  55.031   0.001   0.003  28.751
 Approx polarizability: 136.124   0.809 105.759   0.005   0.033  41.927

                     1                      2                      3
                     A                      A                      A
 Frequencies --   102.3585               216.6895               258.2573
 Red. masses --    13.1673                 5.6135                 9.4535
 Frc consts  --     0.0813                 0.1553                 0.3715
 IR Inten    --     4.5525                 0.9319                 0.9856

                     4                      5                      6
                     A                      A                      A
 Frequencies --   361.8506               454.1553               589.1656
 Red. masses --     4.0598                10.0321                 6.1284
 Frc consts  --     0.3132                 1.2191                 1.2533
 IR Inten    --     0.9025                 0.2402                 0.5934

                     7                      8                      9
                     A                      A                      A
 Frequencies --   730.5839               731.8270               869.2680
 Red. masses --     1.3550                 7.2684                 7.2251
 Frc consts  --     0.4261                 2.2935                 3.2166
 IR Inten    --    44.8997                 1.6801                21.7197

                    10                     11                     12
                     A                      A                      A
 Frequencies --   965.6419              1018.8474              1211.5082
 Red. masses --     1.3477                 3.7931                 1.1434
 Frc consts  --     0.7404                 2.3198                 0.9888
 IR Inten    --     0.5170                 6.1209                28.2282

                    13                     14                     15
                     A                      A                      A
 Frequencies --  1354.7825              1606.3812              2315.7393
 Red. masses --     1.3566                 5.9662                12.6344
 Frc consts  --     1.4670                 9.0708                39.9193
 IR Inten    --    19.6473               100.4304               131.2722

                    16                     17                     18
                     A                      A                      A
 Frequencies --  2370.8538              3176.6528              3221.7849
 Red. masses --    13.5668                 1.0902                 1.0972
 Frc consts  --    44.9299                 6.4820                 6.7098
 IR Inten    --    28.9848                44.6845                93.2949

 - Thermochemistry -
 -------------------
 Temperature   298.150 Kelvin.  Pressure   1.00000 Atm.
 Atom     1 has atomic number  6 and mass  12.00000

 Molecular mass:    80.02487 amu.
 Principal axes and moments of inertia in atomic units:
                           1         2         3
     Eigenvalues --   243.38721 651.99705 895.38406
           X            1.00000  -0.00266   0.00000
           Y            0.00266   1.00000  -0.00005
           Z            0.00000   0.00005   1.00000
 This molecule is an asymmetric top.
 Rotational symmetry number  1.
 Rotational temperatures (Kelvin)      0.35587     0.13284     0.09673
 Rotational constants (GHZ):           7.41510     2.76802     2.01561
 Zero-point vibrational energy     128935.6 (Joules/Mol)
                                   30.81635 (Kcal/Mol)
 Warning -- explicit consideration of   6 degrees of freedom as
           vibrations may cause significant error
 Vibrational temperatures:    147.27   311.77   371.57   520.62   653.43
          (Kelvin)            847.68  1051.15  1052.93  1250.68  1389.34
                             1465.89  1743.09  1949.23  2311.22  3331.83
                             3411.13  4570.49  4635.42

 Zero-point correction=                           0.049109 (Hartree/Particle)
 Thermal correction to Energy=                    0.054823
 Thermal correction to Enthalpy=                  0.055767
 Thermal correction to Gibbs Free Energy=         0.019701
 Sum of electronic and zero-point Energies=           -279.367646
 Sum of electronic and thermal Energies=              -279.361932
 Sum of electronic and thermal Enthalpies=            -279.360988
 Sum of electronic and thermal Free Energies=         -279.397054

                     E (Thermal)             CV                S
                      KCal/Mol        Cal/Mol-Kelvin    Cal/Mol-Kelvin
 Total                   34.402             18.668             75.907
 Electronic               0.000              0.000              0.000
 Translational            0.889              2.981             39.054
 Rotational               0.889              2.981             26.455
 Vibrational             32.625             12.706             10.399
 Vibration     1          0.604              1.947              3.409
 Vibration     2          0.646              1.816              1.987
 Vibration     3          0.667              1.749              1.674
 Vibration     4          0.736              1.551              1.114
 Vibration     5          0.813              1.352              0.783
 Vibration     6          0.946              1.055              0.469

 Normal termination of Gaussian 09 at Tue Feb 22 01:04:56 2005.
