 Gaussian 09, Revision B.01,
 Gaussian 09:  EM64L-G09RevB.01 12-Aug-2010

 -------------------------------------------------
 #p Temperature=298.15 opt freq UB3LYP/aug-cc-pVDZ
 -------------------------------------------------

 -----------------------------------------------
 1,2,3-Triazine-5-N2+-UB3LYP-aug-cc-pVDZ-Singlet
 -----------------------------------------------
 Symbolic Z-matrix:
 Charge =  1 Multiplicity = 1

 SCF Done:  E(UB3LYP) =  -388.868675422     A.U. after   16 cycles
 SCF Done:  E(UB3LYP) =  -388.885169375     A.U. after   16 cycles
 SCF Done:  E(UB3LYP) =  -388.886154930     A.U. after   16 cycles
 SCF Done:  E(UB3LYP) =  -388.886209573     A.U. after   11 cycles
 SCF Done:  E(UB3LYP) =  -388.886216949     A.U. after   10 cycles
 SCF Done:  E(UB3LYP) =  -388.886218151     A.U. after    9 cycles
 Optimization completed.
    -- Stationary point found.
 Normal termination of Gaussian 09 at Mon Mar  5 20:35:20 2018.

 ----------------------------------------------------------------------
 #P Geom=AllCheck Guess=TCheck SCRF=Check GenChk UB3LYP/Aug-CC-pVDZ Fre
 q
 ----------------------------------------------------------------------

 1,2,3-Triazine-5-N2+-UB3LYP-aug-cc-pVDZ-Singlet
 -----------------------------------------------
 Redundant internal coordinates taken from checkpoint file:
 1.chk,2,3-Triazine-5-N2+-UB3LYP-aug-cc-pVDZ-Singlet.chk
 Charge =  1 Multiplicity = 1

                         Standard orientation:
 ---------------------------------------------------------------------
 Center     Atomic      Atomic             Coordinates (Angstroms)
 Number     Number       Type             X           Y           Z
 ---------------------------------------------------------------------
      1          6           0        0.180529    1.207671    0.000104
      2          6           0       -0.532460   -0.000007    0.000075
      3          6           0        0.180530   -1.207668    0.000079
      4          1           0       -0.290939    2.192026    0.000017
      5          7           0       -1.920804   -0.000008    0.000005
      6          7           0       -3.033267    0.000004   -0.000082
      7          1           0       -0.290939   -2.192029    0.000004
      8          7           0        2.157563   -0.000006   -0.000013
      9          7           0        1.513281   -1.162036   -0.000054
     10          7           0        1.513268    1.162049   -0.000080
 ---------------------------------------------------------------------

 SCF Done:  E(UB3LYP) =  -388.886218151     A.U. after    1 cycles

 The electronic state is 1-A.
 Alpha  occ. eigenvalues --  -14.78037 -14.75049 -14.63686 -14.60175 -14.60172
 Alpha  occ. eigenvalues --  -10.53991 -10.49983 -10.49980  -1.43615  -1.29546
 Alpha  occ. eigenvalues --   -1.15567  -1.14351  -1.02317  -0.93031  -0.87229
 Alpha  occ. eigenvalues --   -0.81449  -0.78527  -0.75832  -0.74380  -0.74359
 Alpha  occ. eigenvalues --   -0.67878  -0.67705  -0.59689  -0.56376  -0.55760
 Alpha  occ. eigenvalues --   -0.48486  -0.47237
 Alpha virt. eigenvalues --   -0.36070  -0.33341  -0.28516  -0.25520  -0.18343
 Alpha virt. eigenvalues --   -0.13582  -0.13499  -0.13089  -0.12014  -0.10525
 Alpha virt. eigenvalues --   -0.09347  -0.07937  -0.07188  -0.06614  -0.05691

  Beta  occ. eigenvalues --  -14.78037 -14.75049 -14.63686 -14.60175 -14.60172
  Beta  occ. eigenvalues --  -10.53991 -10.49983 -10.49980  -1.43615  -1.29546
  Beta  occ. eigenvalues --   -1.15567  -1.14351  -1.02317  -0.93031  -0.87229
  Beta  occ. eigenvalues --   -0.81449  -0.78527  -0.75832  -0.74380  -0.74359
  Beta  occ. eigenvalues --   -0.67878  -0.67705  -0.59689  -0.56376  -0.55760
  Beta  occ. eigenvalues --   -0.48486  -0.47237
  Beta virt. eigenvalues --   -0.36070  -0.33341  -0.28516  -0.25520  -0.18343
  Beta virt. eigenvalues --   -0.13582  -0.13499  -0.13089  -0.12014  -0.10525
  Beta virt. eigenvalues --   -0.09347  -0.07937  -0.07188  -0.06614  -0.05691

 Mulliken atomic charges:
              1
     1  C    0.916434
     2  C    0.886503
     3  C    0.916401
     4  H   -0.542639
     5  N    0.451127
     6  N   -0.505287
     7  H   -0.542624
     8  N   -0.134497
     9  N   -0.222704
    10  N   -0.222714
 Sum of Mulliken atomic charges =   1.00000

 Dipole moment (field-independent basis, Debye):
    X=             -6.8522    Y=             -0.0001    Z=              0.0003  Tot=              6.8522
 Quadrupole moment (field-independent basis, Debye-Ang):
   XX=            -34.5350   YY=            -34.4873   ZZ=            -40.8966
   XY=              0.0000   XZ=              0.0004   YZ=              0.0001

  Exact polarizability: 104.265   0.000  63.767   0.000   0.000  34.861
 Approx polarizability: 221.320  -0.001 117.400  -0.001   0.000  54.894

                     1                      2                      3
                     A                      A                      A
 Frequencies --   106.3294               161.7653               245.6629
 Red. masses --     6.4343                 8.8667                 9.2576
 Frc consts  --     0.0429                 0.1367                 0.3292
 IR Inten    --    12.0441                 4.5530                 0.0016

                     4                      5                      6
                     A                      A                      A
 Frequencies --   323.9298               466.4786               512.0417
 Red. masses --     4.0176                10.6218                 8.8623
 Frc consts  --     0.2484                 1.3618                 1.3690
 IR Inten    --     0.0000                 5.6224                 6.4518

                     7                      8                      9
                     A                      A                      A
 Frequencies --   553.5546               654.0615               740.5320
 Red. masses --     7.4916                10.6064                 4.2863
 Frc consts  --     1.3525                 2.6734                 1.3849
 IR Inten    --     1.8024                 5.9285                 9.3384

                    10                     11                     12
                     A                      A                      A
 Frequencies --   796.1531               934.2586               939.8378
 Red. masses --    11.2549                11.3733                 1.4015
 Frc consts  --     4.2032                 5.8489                 0.7294
 IR Inten    --     9.7504                68.2107                 0.0010

                    13                     14                     15
                     A                      A                      A
 Frequencies --   943.1629              1032.6845              1071.4529
 Red. masses --     1.5392                 4.3341                 8.4642
 Frc consts  --     0.8067                 2.7233                 5.7251
 IR Inten    --     7.6280                 0.5901                31.2347

                    16                     17                     18
                     A                      A                      A
 Frequencies --  1149.5516              1191.8776              1380.0913
 Red. masses --     2.9157                 2.4966                 1.7695
 Frc consts  --     2.2701                 2.0896                 1.9857
 IR Inten    --    67.8323                 1.2933                11.2823

                    19                     20                     21
                     A                      A                      A
 Frequencies --  1382.2897              1507.3349              1520.8361
 Red. masses --     2.4798                 4.2010                 8.4929
 Frc consts  --     2.7917                 5.6237                11.5736
 IR Inten    --    11.7281                83.9830                33.3748

                    22                     23                     24
                     A                      A                      A
 Frequencies --  2346.3488              3199.0055              3200.2365
 Red. masses --    13.9426                 1.0976                 1.0962
 Frc consts  --    45.2250                 6.6177                 6.6146
 IR Inten    --   129.6104                 3.0602                27.6327

 - Thermochemistry -
 -------------------
 Temperature   298.150 Kelvin.  Pressure   1.00000 Atm.
 Atom     1 has atomic number  6 and mass  12.00000

 Molecular mass:   108.03102 amu.
 Principal axes and moments of inertia in atomic units:
                           1         2         3
     Eigenvalues --   294.635181121.934751416.56992
           X            1.00000   0.00000   0.00000
           Y            0.00000   1.00000   0.00000
           Z            0.00000   0.00000   1.00000
 This molecule is an asymmetric top.
 Rotational symmetry number  1.
 Rotational temperatures (Kelvin)      0.29397     0.07720     0.06114
 Rotational constants (GHZ):           6.12534     1.60860     1.27402
 Zero-point vibrational energy     157664.7 (Joules/Mol)
                                   37.68277 (Kcal/Mol)
 Warning -- explicit consideration of   7 degrees of freedom as
           vibrations may cause significant error
 Vibrational temperatures:    152.98   232.74   353.45   466.06   671.16
          (Kelvin)            736.71   796.44   941.05  1065.46  1145.49
                             1344.19  1352.22  1357.00  1485.80  1541.58
                             1653.95  1714.84  1985.64  1988.80  2168.72
                             2188.14  3375.87  4602.65  4604.42

 Zero-point correction=                           0.060051 (Hartree/Particle)
 Thermal correction to Energy=                    0.066339
 Thermal correction to Enthalpy=                  0.067283
 Thermal correction to Gibbs Free Energy=         0.029311
 Sum of electronic and zero-point Energies=           -388.826167
 Sum of electronic and thermal Energies=              -388.819879
 Sum of electronic and thermal Enthalpies=            -388.818935
 Sum of electronic and thermal Free Energies=         -388.856907

                     E (Thermal)             CV                S
                      KCal/Mol        Cal/Mol-Kelvin    Cal/Mol-Kelvin
 Total                   41.628             22.019             79.920
 Electronic               0.000              0.000              0.000
 Translational            0.889              2.981             39.948
 Rotational               0.889              2.981             27.640
 Vibrational             39.851             16.058             12.332
 Vibration     1          0.605              1.944              3.335
 Vibration     2          0.622              1.889              2.529
 Vibration     3          0.660              1.770              1.761
 Vibration     4          0.708              1.628              1.290
 Vibration     5          0.824              1.324              0.747
 Vibration     6          0.867              1.223              0.629
 Vibration     7          0.909              1.132              0.537

 Optimization completed.
    -- Stationary point found.
 Normal termination of Gaussian 09 at Mon Mar  5 20:39:50 2018.
