 Gaussian 09, Revision B.01,
 Gaussian 09:  EM64L-G09RevB.01 12-Aug-2010

 -------------------------------------------------
 #p Temperature=298.15 opt freq UB3LYP/aug-cc-pVDZ
 -------------------------------------------------

 --------------------------------------------
 1,2,4-Triazine-3+-UB3LYP-aug-cc-pVDZ-Triplet
 --------------------------------------------
 Symbolic Z-matrix:
 Charge =  1 Multiplicity = 3

 SCF Done:  E(UB3LYP) =  -279.281327452     A.U. after   20 cycles
 SCF Done:  E(UB3LYP) =  -279.323050210     A.U. after   18 cycles
 SCF Done:  E(UB3LYP) =  -279.332329843     A.U. after   18 cycles
 SCF Done:  E(UB3LYP) =  -279.332876934     A.U. after   18 cycles
 SCF Done:  E(UB3LYP) =  -279.332972858     A.U. after   18 cycles
 SCF Done:  E(UB3LYP) =  -279.332978063     A.U. after   20 cycles
 SCF Done:  E(UB3LYP) =  -279.332978180     A.U. after   15 cycles
 Optimization completed.
    -- Stationary point found.
 Normal termination of Gaussian 09 at Thu Jan 20 01:52:09 2005.

 ----------------------------------------------------------------------
 #P Geom=AllCheck Guess=TCheck SCRF=Check GenChk UB3LYP/Aug-CC-pVDZ Fre
 q
 ----------------------------------------------------------------------

 1,2,4-Triazine-3+-UB3LYP-aug-cc-pVDZ-Triplet
 --------------------------------------------
 Redundant internal coordinates taken from checkpoint file:
 1.chk,2,4-Triazine-3+-UB3LYP-aug-cc-pVDZ-Triplet.chk
 Charge =  1 Multiplicity = 3

                         Standard orientation:
 ---------------------------------------------------------------------
 Center     Atomic      Atomic             Coordinates (Angstroms)
 Number     Number       Type             X           Y           Z
 ---------------------------------------------------------------------
      1          6           0       -0.772986   -1.146449   -0.000156
      2          6           0        0.648058    1.121564   -0.000239
      3          1           0        1.180843    2.071675   -0.000064
      4          6           0        1.272246   -0.161633    0.000224
      5          1           0        2.362090   -0.257458    0.000247
      6          7           0        0.521454   -1.252623   -0.000078
      7          7           0       -1.330241    0.047131    0.000172
      8          7           0       -0.680761    1.106191    0.000027
 ---------------------------------------------------------------------

 SCF Done:  E(UB3LYP) =  -279.332978180     A.U. after    1 cycles

 The electronic state is 3-A.
 Alpha  occ. eigenvalues --  -14.70751 -14.70470 -14.64939 -10.56438 -10.52866
 Alpha  occ. eigenvalues --  -10.52267  -1.38214  -1.23671  -1.13453  -0.99040
 Alpha  occ. eigenvalues --   -0.97109  -0.84143  -0.79938  -0.75445  -0.73149
 Alpha  occ. eigenvalues --   -0.68489  -0.63621  -0.62779  -0.57673  -0.55421
 Alpha  occ. eigenvalues --   -0.51822
 Alpha virt. eigenvalues --   -0.34194  -0.31163  -0.16280  -0.15646  -0.13660
 Alpha virt. eigenvalues --   -0.12269  -0.10929  -0.09872  -0.09105  -0.08257
 Alpha virt. eigenvalues --   -0.06453  -0.05672  -0.04643  -0.03499  -0.02805

  Beta  occ. eigenvalues --  -14.69480 -14.69416 -14.64245 -10.54610 -10.52726
  Beta  occ. eigenvalues --  -10.52146  -1.36524  -1.22190  -1.11501  -0.96690
  Beta  occ. eigenvalues --   -0.95378  -0.82558  -0.77424  -0.74249  -0.71829
  Beta  occ. eigenvalues --   -0.63332  -0.62710  -0.57092  -0.56735
  Beta virt. eigenvalues --   -0.41417  -0.35884  -0.33058  -0.29542  -0.16162
  Beta virt. eigenvalues --   -0.13746  -0.13379  -0.12128  -0.10836  -0.09608
  Beta virt. eigenvalues --   -0.08678  -0.07667  -0.06303  -0.05640  -0.04357

 Mulliken atomic charges:
              1
     1  C    0.003655
     2  C    1.004812
     3  H   -0.366262
     4  C    0.636855
     5  H   -0.355297
     6  N    0.029459
     7  N    0.122398
     8  N   -0.075621
 Sum of Mulliken atomic charges =   1.00000

 Dipole moment (field-independent basis, Debye):
    X=              2.2627    Y=              1.3965    Z=              0.0001  Tot=              2.6590
 Quadrupole moment (field-independent basis, Debye-Ang):
   XX=            -21.7047   YY=            -25.6445   ZZ=            -30.7011
   XY=              3.4509   XZ=              0.0009   YZ=             -0.0004

  Exact polarizability:  57.960  -0.688  58.304   0.001  -0.001  26.971
 Approx polarizability: 121.584  -9.973 121.188  -0.002  -0.001  40.416

                     1                      2                      3
                     A                      A                      A
 Frequencies --   388.8148               442.9524               640.1849
 Red. masses --     3.9449                10.1996                 5.1046
 Frc consts  --     0.3514                 1.1791                 1.2326
 IR Inten    --     0.3823                 9.1487                 4.1297

                     4                      5                      6
                     A                      A                      A
 Frequencies --   646.0913               690.7342               825.8908
 Red. masses --    11.2280                10.5381                 8.2278
 Frc consts  --     2.7615                 2.9623                 3.3066
 IR Inten    --     5.6966                13.8149               117.3435

                     7                      8                      9
                     A                      A                      A
 Frequencies --   846.5643               978.7256              1042.4948
 Red. masses --     1.2127                 1.4818                 2.4409
 Frc consts  --     0.5120                 0.8363                 1.5630
 IR Inten    --    25.5569                 0.0098                13.9993

                    10                     11                     12
                     A                      A                      A
 Frequencies --  1124.6746              1202.0540              1237.1910
 Red. masses --     7.4965                 1.7618                 2.1708
 Frc consts  --     5.5868                 1.4999                 1.9577
 IR Inten    --     6.0679                30.5772                62.6560

                    13                     14                     15
                     A                      A                      A
 Frequencies --  1375.9887              1428.5590              1549.8711
 Red. masses --     3.8702                 2.5796                 8.2473
 Frc consts  --     4.3173                 3.1016                11.6723
 IR Inten    --    66.0520                 2.0943                 8.2409

                    16                     17                     18
                     A                      A                      A
 Frequencies --  1691.7434              3181.2257              3236.5313
 Red. masses --    12.6412                 1.0942                 1.0985
 Frc consts  --    21.3161                 6.5241                 6.7797
 IR Inten    --    52.6560                42.8253                37.9311

 - Thermochemistry -
 -------------------
 Temperature   298.150 Kelvin.  Pressure   1.00000 Atm.
 Atom     1 has atomic number  6 and mass  12.00000

 Molecular mass:    80.02487 amu.
 Principal axes and moments of inertia in atomic units:
                           1         2         3
     Eigenvalues --   257.62756 271.79348 529.42103
           X           -0.60248   0.79814   0.00001
           Y            0.79814   0.60248   0.00000
           Z            0.00001   0.00000   1.00000
 This molecule is an asymmetric top.
 Rotational symmetry number  1.
 Rotational temperatures (Kelvin)      0.33620     0.31868     0.16360
 Rotational constants (GHZ):           7.00523     6.64012     3.40890
 Zero-point vibrational energy     134761.1 (Joules/Mol)
                                   32.20867 (Kcal/Mol)
 Warning -- explicit consideration of   2 degrees of freedom as
           vibrations may cause significant error
 Vibrational temperatures:    559.42   637.31   921.08   929.58   993.81
          (Kelvin)           1188.27  1218.02  1408.17  1499.92  1618.15
                             1729.49  1780.04  1979.74  2055.38  2229.92
                             2434.04  4577.07  4656.64

 Zero-point correction=                           0.051328 (Hartree/Particle)
 Thermal correction to Energy=                    0.055426
 Thermal correction to Enthalpy=                  0.056370
 Thermal correction to Gibbs Free Energy=         0.023119
 Sum of electronic and zero-point Energies=           -279.281650
 Sum of electronic and thermal Energies=              -279.277553
 Sum of electronic and thermal Enthalpies=            -279.276608
 Sum of electronic and thermal Free Energies=         -279.309859

                     E (Thermal)             CV                S
                      KCal/Mol        Cal/Mol-Kelvin    Cal/Mol-Kelvin
 Total                   34.780             14.439             69.982
 Electronic               0.000              0.000              2.183
 Translational            0.889              2.981             39.054
 Rotational               0.889              2.981             25.120
 Vibrational             33.003              8.478              3.625
 Vibration     1          0.757              1.494              1.005
 Vibration     2          0.803              1.376              0.817

 Optimization completed.
    -- Stationary point found.
 Normal termination of Gaussian 09 at Thu Jan 20 01:53:41 2005.
