 Gaussian 09, Revision B.01,
 Gaussian 09:  EM64L-G09RevB.01 12-Aug-2010

 -------------------------------------------------
 #p Temperature=298.15 opt freq UB3LYP/aug-cc-pVDZ
 -------------------------------------------------

 ------------------------------------------
 1,2,4-Triazine-6-UB3LYP-aug-cc-pVDZ-Duplet
 ------------------------------------------
 Symbolic Z-matrix:
 Charge =  0 Multiplicity = 2

 SCF Done:  E(UB3LYP) =  -279.653079271     A.U. after   17 cycles
 SCF Done:  E(UB3LYP) =  -279.676561620     A.U. after   18 cycles
 SCF Done:  E(UB3LYP) =  -279.678424499     A.U. after   18 cycles
 SCF Done:  E(UB3LYP) =  -279.678704207     A.U. after   18 cycles
 SCF Done:  E(UB3LYP) =  -279.678659692     A.U. after   15 cycles
 SCF Done:  E(UB3LYP) =  -279.678768716     A.U. after   18 cycles
 SCF Done:  E(UB3LYP) =  -279.678772175     A.U. after   21 cycles
 Optimization completed.
    -- Stationary point found.
 Normal termination of Gaussian 09 at Mon Mar  5 21:43:43 2018.

 ----------------------------------------------------------------------
 #P Geom=AllCheck Guess=TCheck SCRF=Check GenChk UB3LYP/Aug-CC-pVDZ Fre
 q
 ----------------------------------------------------------------------

 1,2,4-Triazine-6-UB3LYP-aug-cc-pVDZ-Duplet
 ------------------------------------------
 Redundant internal coordinates taken from checkpoint file:
 1.chk,2,4-Triazine-6-UB3LYP-aug-cc-pVDZ-Duplet.chk
 Charge =  0 Multiplicity = 2

                         Standard orientation:
 ---------------------------------------------------------------------
 Center     Atomic      Atomic             Coordinates (Angstroms)
 Number     Number       Type             X           Y           Z
 ---------------------------------------------------------------------
      1          6           0        0.396675   -1.288322   -0.000159
      2          6           0        1.350184   -0.252386    0.000148
      3          1           0        2.427686   -0.417324   -0.000286
      4          7           0       -0.863385   -1.077210    0.000286
      5          7           0        0.889539    0.992550   -0.000120
      6          7           0       -1.366975    0.176152   -0.000339
      7          6           0       -0.447516    1.143265    0.000181
      8          1           0       -0.837998    2.161539    0.000479
 ---------------------------------------------------------------------

 SCF Done:  E(UB3LYP) =  -279.678772175     A.U. after    1 cycles

 The electronic state is 2-A.
 Alpha  occ. eigenvalues --  -14.41542 -14.40878 -14.39446 -10.29045 -10.28965
 Alpha  occ. eigenvalues --  -10.27080  -1.07727  -0.97095  -0.87728  -0.72874
 Alpha  occ. eigenvalues --   -0.70053  -0.58053  -0.56107  -0.48215  -0.46656
 Alpha  occ. eigenvalues --   -0.42139  -0.37881  -0.35970  -0.33580  -0.29832
 Alpha  occ. eigenvalues --   -0.25465
 Alpha virt. eigenvalues --   -0.10473  -0.06575  -0.01031   0.00691   0.02953
 Alpha virt. eigenvalues --    0.03744   0.04196   0.05618   0.06724   0.06816
 Alpha virt. eigenvalues --    0.07996   0.09057   0.09732   0.09831   0.10059

  Beta  occ. eigenvalues --  -14.41219 -14.40640 -14.39265 -10.28999 -10.28898
  Beta  occ. eigenvalues --  -10.25734  -1.07184  -0.96637  -0.86755  -0.72310
  Beta  occ. eigenvalues --   -0.68723  -0.57130  -0.55620  -0.47899  -0.46344
  Beta  occ. eigenvalues --   -0.39369  -0.37654  -0.34329  -0.32910  -0.27761
  Beta virt. eigenvalues --   -0.12699  -0.10260  -0.05723  -0.00976   0.00733
  Beta virt. eigenvalues --    0.03159   0.03852   0.04329   0.05801   0.06885
  Beta virt. eigenvalues --    0.06931   0.08052   0.09099   0.09802   0.10171

 Mulliken atomic charges:
              1
     1  C   -0.019698
     2  C    0.656521
     3  H   -0.330457
     4  N   -0.208071
     5  N   -0.178872
     6  N   -0.109464
     7  C    0.546513
     8  H   -0.356472
 Sum of Mulliken atomic charges =   0.00000

 Dipole moment (field-independent basis, Debye):
    X=              2.1028    Y=              0.9251    Z=              0.0006  Tot=              2.2973
 Quadrupole moment (field-independent basis, Debye-Ang):
   XX=            -35.7929   YY=            -35.2997   ZZ=            -33.7337
   XY=             -4.3965   XZ=             -0.0009   YZ=              0.0016

  Exact polarizability:  64.489  -3.613  64.130  -0.001   0.003  33.509
 Approx polarizability: 118.851  -3.922 113.075  -0.002   0.004  50.479

                     1                      2                      3
                     A                      A                      A
 Frequencies --   338.8832               378.6204               548.9307
 Red. masses --     3.8164                 7.4697                12.1660
 Frc consts  --     0.2582                 0.6309                 2.1599
 IR Inten    --     0.0290                12.0845                24.8268

                     4                      5                      6
                     A                      A                      A
 Frequencies --   699.8043               742.1605               913.6801
 Red. masses --     9.1309                 3.8578                 1.3996
 Frc consts  --     2.6346                 1.2519                 0.6884
 IR Inten    --    17.4377                11.7590                 4.2402

                     7                      8                      9
                     A                      A                      A
 Frequencies --   948.8635               966.0338               989.2179
 Red. masses --     7.2946                12.7662                 1.4643
 Frc consts  --     3.8695                 7.0194                 0.8442
 IR Inten    --    49.9566                 0.4868                 0.0693

                    10                     11                     12
                     A                      A                      A
 Frequencies --  1134.3719              1160.2836              1226.7380
 Red. masses --     3.4900                 4.1772                 2.5299
 Frc consts  --     2.6460                 3.3133                 2.2431
 IR Inten    --     7.0342                 1.3683                 6.5577

                    13                     14                     15
                     A                      A                      A
 Frequencies --  1375.8604              1388.1359              1507.3766
 Red. masses --     1.9523                 2.0157                 3.3733
 Frc consts  --     2.1774                 2.2885                 4.5160
 IR Inten    --     7.9432                28.4639                23.4481

                    16                     17                     18
                     A                      A                      A
 Frequencies --  1640.3297              3195.0581              3200.1059
 Red. masses --    11.4046                 1.0913                 1.0949
 Frc consts  --    18.0798                 6.5636                 6.6060
 IR Inten    --     4.4430                 4.4651                 2.9040

 - Thermochemistry -
 -------------------
 Temperature   298.150 Kelvin.  Pressure   1.00000 Atm.
 Atom     1 has atomic number  6 and mass  12.00000

 Molecular mass:    80.02487 amu.
 Principal axes and moments of inertia in atomic units:
                           1         2         3
     Eigenvalues --   253.14985 290.22584 543.37566
           X            0.96056  -0.27806  -0.00001
           Y            0.27806   0.96056   0.00002
           Z            0.00001  -0.00002   1.00000
 This molecule is an asymmetric top.
 Rotational symmetry number  1.
 Rotational temperatures (Kelvin)      0.34214     0.29844     0.15940
 Rotational constants (GHZ):           7.12914     6.21840     3.32135
 Zero-point vibrational energy     133709.3 (Joules/Mol)
                                   31.95730 (Kcal/Mol)
 Warning -- explicit consideration of   3 degrees of freedom as
           vibrations may cause significant error
 Vibrational temperatures:    487.58   544.75   789.79  1006.86  1067.80
          (Kelvin)           1314.58  1365.20  1389.91  1423.26  1632.11
                             1669.39  1765.00  1979.55  1997.22  2168.78
                             2360.07  4596.97  4604.23

 Zero-point correction=                           0.050927 (Hartree/Particle)
 Thermal correction to Energy=                    0.055121
 Thermal correction to Enthalpy=                  0.056065
 Thermal correction to Gibbs Free Energy=         0.022973
 Sum of electronic and zero-point Energies=           -279.627845
 Sum of electronic and thermal Energies=              -279.623652
 Sum of electronic and thermal Enthalpies=            -279.622707
 Sum of electronic and thermal Free Energies=         -279.655799

                     E (Thermal)             CV                S
                      KCal/Mol        Cal/Mol-Kelvin    Cal/Mol-Kelvin
 Total                   34.589             14.537             69.648
 Electronic               0.000              0.000              1.377
 Translational            0.889              2.981             39.054
 Rotational               0.889              2.981             25.193
 Vibrational             32.811              8.575              4.023
 Vibration     1          0.719              1.598              1.217
 Vibration     2          0.749              1.516              1.045
 Vibration     3          0.904              1.142              0.546

 Optimization completed.
    -- Stationary point found.
 Normal termination of Gaussian 09 at Mon Mar  5 21:45:16 2018.
