 Gaussian 09, Revision B.01,
 Gaussian 09:  EM64L-G09RevB.01 12-Aug-2010

 -------------------------------------------------
 #p Temperature=298.15 opt freq UB3LYP/aug-cc-pVDZ
 -------------------------------------------------

 ----------------------------------------------------
 1,3,5-(CH3)3-Pyrazole-4-N2-UB3LYP-aug-cc-pVDZ-Duplet
 ----------------------------------------------------
 Symbolic Z-matrix:
 Charge =  0 Multiplicity = 2

 SCF Done:  E(UB3LYP) =  -452.666664984     A.U. after   22 cycles
 SCF Done:  E(UB3LYP) =  -452.831524516     A.U. after   21 cycles
 SCF Done:  E(UB3LYP) =  -452.975574639     A.U. after   18 cycles
 SCF Done:  E(UB3LYP) =  -453.031220506     A.U. after   19 cycles
 SCF Done:  E(UB3LYP) =  -453.044996871     A.U. after   19 cycles
 SCF Done:  E(UB3LYP) =  -453.048933755     A.U. after   17 cycles
 SCF Done:  E(UB3LYP) =  -453.049769940     A.U. after   19 cycles
 SCF Done:  E(UB3LYP) =  -453.049619826     A.U. after   16 cycles
 SCF Done:  E(UB3LYP) =  -453.050104804     A.U. after   15 cycles
 SCF Done:  E(UB3LYP) =  -453.050140901     A.U. after   13 cycles
 SCF Done:  E(UB3LYP) =  -453.050146048     A.U. after   12 cycles
 SCF Done:  E(UB3LYP) =  -453.050146914     A.U. after   11 cycles
 SCF Done:  E(UB3LYP) =  -453.050147036     A.U. after    8 cycles
 Optimization completed.
    -- Stationary point found.
 Normal termination of Gaussian 09 at Mon Mar 19 23:40:02 2018.

 ----------------------------------------------------------------------
 #P Geom=AllCheck Guess=TCheck SCRF=Check GenChk UB3LYP/Aug-CC-pVDZ Fre
 q
 ----------------------------------------------------------------------

 1,3,5-(CH3)3-Pyrazole-4-N2-UB3LYP-aug-cc-pVDZ-Duplet
 ----------------------------------------------------
 Redundant internal coordinates taken from checkpoint file:
 1.chk,3,5-(CH3)3-Pyrazole-4-N2-UB3LYP-aug-cc-pVDZ-Duplet.chk
 Charge =  0 Multiplicity = 2

                         Standard orientation:
 ---------------------------------------------------------------------
 Center     Atomic      Atomic             Coordinates (Angstroms)
 Number     Number       Type             X           Y           Z
 ---------------------------------------------------------------------
      1          7           0       -1.626165    1.408176    0.002816
      2          7           0       -2.803239    1.215542    0.008256
      3          6           0       -0.618797    0.414412    0.000172
      4          6           0       -0.715858   -1.010115   -0.000706
      5          7           0        1.372433   -0.481588   -0.015776
      6          6           0        0.743495    0.716684   -0.007202
      7          7           0        0.504968   -1.537160   -0.007792
      8          6           0        1.442838    2.034884   -0.003979
      9          1           0        0.698589    2.838036   -0.000691
     10          1           0        2.081833    2.151385    0.883662
     11          1           0        2.079202    2.157096   -0.892802
     12          6           0       -1.938093   -1.869054    0.000537
     13          1           0       -2.560382   -1.667503    0.883553
     14          1           0       -2.562219   -1.667912   -0.881349
     15          1           0       -1.645157   -2.925069    0.000326
     16          6           0        2.801160   -0.734969    0.016456
     17          1           0        3.312965   -0.138964   -0.749689
     18          1           0        3.223509   -0.494712    1.002512
     19          1           0        2.947215   -1.798202   -0.189726
 ---------------------------------------------------------------------

 SCF Done:  E(UB3LYP) =  -453.050147036     A.U. after    2 cycles

 The electronic state is 2-A.
 Alpha  occ. eigenvalues --  -14.42209 -14.40954 -14.38117 -14.35855 -10.24741
 Alpha  occ. eigenvalues --  -10.24426 -10.22758 -10.22710 -10.21384 -10.18845
 Alpha  occ. eigenvalues --   -1.06755  -1.05460  -0.87054  -0.83346  -0.75520
 Alpha  occ. eigenvalues --   -0.74362  -0.71009  -0.65376  -0.57021  -0.56732
 Alpha  occ. eigenvalues --   -0.50337  -0.50134  -0.46930  -0.44685  -0.44616
 Alpha  occ. eigenvalues --   -0.43502  -0.42816  -0.42200  -0.41508  -0.41126
 Alpha  occ. eigenvalues --   -0.39716  -0.38819  -0.37450  -0.30864  -0.25996
 Alpha  occ. eigenvalues --   -0.25744  -0.19556
 Alpha virt. eigenvalues --   -0.05225  -0.02201  -0.00429   0.00252   0.00439
 Alpha virt. eigenvalues --    0.00987   0.02597   0.02897   0.03230   0.03383
 Alpha virt. eigenvalues --    0.04267   0.05186   0.06158   0.06910   0.07082

  Beta  occ. eigenvalues --  -14.42212 -14.40575 -14.36518 -14.35842 -10.24774
  Beta  occ. eigenvalues --  -10.24425 -10.22738 -10.22408 -10.21377 -10.18840
  Beta  occ. eigenvalues --   -1.06561  -1.03796  -0.87008  -0.82935  -0.75268
  Beta  occ. eigenvalues --   -0.73839  -0.70601  -0.64739  -0.56494  -0.56475
  Beta  occ. eigenvalues --   -0.50173  -0.50104  -0.45118  -0.44454  -0.43617
  Beta  occ. eigenvalues --   -0.43420  -0.42263  -0.41284  -0.41040  -0.40111
  Beta  occ. eigenvalues --   -0.39069  -0.38753  -0.35504  -0.30402  -0.26053
  Beta  occ. eigenvalues --   -0.25250
  Beta virt. eigenvalues --   -0.05249  -0.04094  -0.02165  -0.00463   0.00258
  Beta virt. eigenvalues --    0.00518   0.00983   0.02616   0.02895   0.03232
  Beta virt. eigenvalues --    0.03422   0.04260   0.05211   0.06159   0.06973

 Mulliken atomic charges:
              1
     1  N    0.036788
     2  N   -0.645169
     3  C    1.218841
     4  C   -0.491476
     5  N   -0.124206
     6  C   -0.926306
     7  N   -0.730396
     8  C    1.269458
     9  H   -0.354611
    10  H   -0.088259
    11  H   -0.116753
    12  C    1.153696
    13  H   -0.110749
    14  H   -0.111809
    15  H   -0.406321
    16  C    1.309898
    17  H   -0.256095
    18  H   -0.228050
    19  H   -0.398482
 Sum of Mulliken atomic charges =   0.00000

 Dipole moment (field-independent basis, Debye):
    X=              4.4458    Y=              0.1422    Z=              0.0071  Tot=              4.4481
 Quadrupole moment (field-independent basis, Debye-Ang):
   XX=            -58.7309   YY=            -62.4409   ZZ=            -59.6188
   XY=              7.4824   XZ=              0.0235   YZ=             -0.0256

  Exact polarizability: 141.242  -1.282 109.661   0.266  -0.059  67.259
 Approx polarizability: 214.703  -9.182 160.012   0.030  -0.043 105.002

                     1                      2                      3
                     A                      A                      A
 Frequencies --    33.7733               105.5469               128.8366
 Red. masses --     1.0748                 4.0608                 1.1140
 Frc consts  --     0.0007                 0.0267                 0.0109
 IR Inten    --     0.0609                 0.6322                 0.6215

                     4                      5                      6
                     A                      A                      A
 Frequencies --   137.0383               170.6457               175.5979
 Red. masses --     1.0358                 2.5678                 5.6673
 Frc consts  --     0.0115                 0.0441                 0.1030
 IR Inten    --     0.1446                 5.6674                 2.4369

                     7                      8                      9
                     A                      A                      A
 Frequencies --   207.0996               254.2440               276.6507
 Red. masses --     4.3453                 2.6024                 2.6279
 Frc consts  --     0.1098                 0.0991                 0.1185
 IR Inten    --     0.8845                 2.7517                 1.3214

                    10                     11                     12
                     A                      A                      A
 Frequencies --   317.4986               337.2090               400.5973
 Red. masses --     6.3248                 4.6320                 6.1892
 Frc consts  --     0.3756                 0.3103                 0.5852
 IR Inten    --     0.8117                 1.0142                 5.0065

                    13                     14                     15
                     A                      A                      A
 Frequencies --   543.2701               599.1948               632.4888
 Red. masses --     4.6520                 4.0006                 4.4617
 Frc consts  --     0.8089                 0.8463                 1.0516
 IR Inten    --     2.0399                 6.7231                 6.7930

                    16                     17                     18
                     A                      A                      A
 Frequencies --   644.7145               688.9109               723.5526
 Red. masses --     5.9467                 5.1740                 5.9980
 Frc consts  --     1.4563                 1.4468                 1.8501
 IR Inten    --     1.1870                 0.4107                39.9990

                    19                     20                     21
                     A                      A                      A
 Frequencies --   866.0724              1001.7413              1042.1343
 Red. masses --     3.1338                 1.7767                 1.7959
 Frc consts  --     1.3849                 1.0504                 1.1491
 IR Inten    --     3.7636                11.9194                 0.5406

                    22                     23                     24
                     A                      A                      A
 Frequencies --  1043.0791              1046.2566              1049.3617
 Red. masses --     2.1630                 1.4861                 1.5178
 Frc consts  --     1.3865                 0.9585                 0.9847
 IR Inten    --     1.2460                 0.1264                 1.0278

                    25                     26                     27
                     A                      A                      A
 Frequencies --  1135.8627              1155.0689              1236.4199
 Red. masses --     1.3204                 3.5392                 3.9740
 Frc consts  --     1.0037                 2.7821                 3.5794
 IR Inten    --     2.5919                 2.8669                 0.5725

                    28                     29                     30
                     A                      A                      A
 Frequencies --  1307.3471              1391.0932              1399.1963
 Red. masses --     5.1547                 1.3908                 1.2825
 Frc consts  --     5.1908                 1.5857                 1.4793
 IR Inten    --     1.6058                 4.7939                 3.4790

                    31                     32                     33
                     A                      A                      A
 Frequencies --  1413.0876              1428.8802              1445.5038
 Red. masses --     2.1411                 1.4996                 1.2305
 Frc consts  --     2.5190                 1.8039                 1.5148
 IR Inten    --    17.2704                45.2346                37.9921

                    34                     35                     36
                     A                      A                      A
 Frequencies --  1455.9035              1461.8203              1468.5253
 Red. masses --     1.0417                 1.0487                 1.4438
 Frc consts  --     1.3010                 1.3204                 1.8345
 IR Inten    --     7.9060                 1.2284                 4.8816

                    37                     38                     39
                     A                      A                      A
 Frequencies --  1470.4818              1480.3033              1504.7771
 Red. masses --     1.0662                 1.1131                 2.7499
 Frc consts  --     1.3583                 1.4371                 3.6688
 IR Inten    --    14.0431                 5.0579                19.2095

                    40                     41                     42
                     A                      A                      A
 Frequencies --  1533.8629              1596.1025              1806.8636
 Red. masses --     4.7620                 7.5195                13.9032
 Frc consts  --     6.6010                11.2866                26.7434
 IR Inten    --    58.6676                29.4466                36.3992

                    43                     44                     45
                     A                      A                      A
 Frequencies --  3029.2214              3038.8258              3039.4056
 Red. masses --     1.0392                 1.0372                 1.0378
 Frc consts  --     5.6185                 5.6433                 5.6484
 IR Inten    --    19.5588                50.9507                14.7608

                    46                     47                     48
                     A                      A                      A
 Frequencies --  3084.1031              3096.9540              3105.0330
 Red. masses --     1.1007                 1.0999                 1.1022
 Frc consts  --     6.1684                 6.2154                 6.2608
 IR Inten    --    12.2841                 9.3984                14.7429

                    49                     50                     51
                     A                      A                      A
 Frequencies --  3134.5739              3140.4698              3169.8979
 Red. masses --     1.1024                 1.0985                 1.1004
 Frc consts  --     6.3818                 6.3832                 6.5146
 IR Inten    --    10.4679                 2.6070                 1.2835

 - Thermochemistry -
 -------------------
 Temperature   298.150 Kelvin.  Pressure   1.00000 Atm.
 Atom     1 has atomic number  7 and mass  14.00307

 Molecular mass:   137.08272 amu.
 Principal axes and moments of inertia in atomic units:
                           1         2         3
     Eigenvalues --   863.332111499.926332329.08411
           X            0.99553   0.09439   0.00040
           Y           -0.09439   0.99553  -0.00032
           Z           -0.00043   0.00028   1.00000
 This molecule is an asymmetric top.
 Rotational symmetry number  1.
 Warning -- assumption of classical behavior for rotation
           may cause significant error
 Rotational temperatures (Kelvin)      0.10033     0.05775     0.03719
 Rotational constants (GHZ):           2.09044     1.20322     0.77487
 Zero-point vibrational energy     394499.1 (Joules/Mol)
                                   94.28755 (Kcal/Mol)
 Warning -- explicit consideration of  14 degrees of freedom as
           vibrations may cause significant error
 Vibrational temperatures:     48.59   151.86   185.37   197.17   245.52
          (Kelvin)            252.65   297.97   365.80   398.04   456.81
                              485.17   576.37   781.64   862.11   910.01
                              927.60   991.19  1041.03  1246.08  1441.28
                             1499.40  1500.76  1505.33  1509.80  1634.25
                             1661.88  1778.93  1880.98  2001.47  2013.13
                             2033.12  2055.84  2079.75  2094.72  2103.23
                             2112.88  2115.69  2129.82  2165.04  2206.88
                             2296.43  2599.67  4358.37  4372.19  4373.02
                             4437.33  4455.82  4467.44  4509.95  4518.43
                             4560.77

 Zero-point correction=                           0.150257 (Hartree/Particle)
 Thermal correction to Energy=                    0.161022
 Thermal correction to Enthalpy=                  0.161966
 Thermal correction to Gibbs Free Energy=         0.112926
 Sum of electronic and zero-point Energies=           -452.899890
 Sum of electronic and thermal Energies=              -452.889125
 Sum of electronic and thermal Enthalpies=            -452.888181
 Sum of electronic and thermal Free Energies=         -452.937221

                     E (Thermal)             CV                S
                      KCal/Mol        Cal/Mol-Kelvin    Cal/Mol-Kelvin
 Total                  101.043             37.419            103.213
 Electronic               0.000              0.000              1.377
 Translational            0.889              2.981             40.658
 Rotational               0.889              2.981             29.490
 Vibrational             99.265             31.457             31.687
 Vibration     1          0.594              1.983              5.594
 Vibration     2          0.605              1.945              3.349
 Vibration     3          0.611              1.924              2.963
 Vibration     4          0.614              1.916              2.845
 Vibration     5          0.626              1.879              2.428
 Vibration     6          0.628              1.872              2.375
 Vibration     7          0.641              1.830              2.069
 Vibration     8          0.665              1.756              1.701
 Vibration     9          0.678              1.717              1.554
 Vibration    10          0.704              1.640              1.323
 Vibration    11          0.718              1.601              1.225
 Vibration    12          0.766              1.469              0.960
 Vibration    13          0.898              1.154              0.558
 Vibration    14          0.957              1.034              0.451

 Normal termination of Gaussian 09 at Tue Mar 20 00:10:51 2018.
