 Gaussian 09, Revision B.01,
 Gaussian 09:  EM64L-G09RevB.01 12-Aug-2010

 -------------------------------------------------
 #p Temperature=298.15 opt freq UB3LYP/aug-cc-pVDZ
 -------------------------------------------------

 -------------------------------------------------
 1,3,5-(CH3)3-Pyrazole-4-UB3LYP-aug-cc-pVDZ-Duplet
 -------------------------------------------------
 Symbolic Z-matrix:
 Charge =  0 Multiplicity = 2

 SCF Done:  E(UB3LYP) =  -343.470182014     A.U. after   18 cycles
 SCF Done:  E(UB3LYP) =  -343.491123950     A.U. after   18 cycles
 SCF Done:  E(UB3LYP) =  -343.493501615     A.U. after   16 cycles
 SCF Done:  E(UB3LYP) =  -343.493647436     A.U. after   14 cycles
 SCF Done:  E(UB3LYP) =  -343.493610665     A.U. after   19 cycles
 SCF Done:  E(UB3LYP) =  -343.493672692     A.U. after   18 cycles
 SCF Done:  E(UB3LYP) =  -343.493679452     A.U. after   12 cycles
 SCF Done:  E(UB3LYP) =  -343.493683444     A.U. after   12 cycles
 SCF Done:  E(UB3LYP) =  -343.493717550     A.U. after   15 cycles
 SCF Done:  E(UB3LYP) =  -343.493717577     A.U. after   13 cycles
 SCF Done:  E(UB3LYP) =  -343.494937353     A.U. after   18 cycles
 SCF Done:  E(UB3LYP) =  -343.494939007     A.U. after   11 cycles
 SCF Done:  E(UB3LYP) =  -343.494939925     A.U. after   11 cycles
 SCF Done:  E(UB3LYP) =  -343.494940675     A.U. after   11 cycles
 SCF Done:  E(UB3LYP) =  -343.494941110     A.U. after    9 cycles
 SCF Done:  E(UB3LYP) =  -343.494941746     A.U. after    9 cycles
 SCF Done:  E(UB3LYP) =  -343.494942622     A.U. after   10 cycles
 SCF Done:  E(UB3LYP) =  -343.494943805     A.U. after   10 cycles
 SCF Done:  E(UB3LYP) =  -343.494944001     A.U. after   19 cycles
 Optimization completed.
    -- Stationary point found.
 Normal termination of Gaussian 09 at Tue Mar  6 03:09:58 2018.

 ----------------------------------------------------------------------
 #P Geom=AllCheck Guess=TCheck SCRF=Check GenChk UB3LYP/Aug-CC-pVDZ Fre
 q
 ----------------------------------------------------------------------

 1,3,5-(CH3)3-Pyrazole-4-UB3LYP-aug-cc-pVDZ-Duplet
 -------------------------------------------------
 Redundant internal coordinates taken from checkpoint file:
 1.chk,3,5-(CH3)3-Pyrazole-4-UB3LYP-aug-cc-pVDZ-Duplet.chk
 Charge =  0 Multiplicity = 2

                         Standard orientation:
 ---------------------------------------------------------------------
 Center     Atomic      Atomic             Coordinates (Angstroms)
 Number     Number       Type             X           Y           Z
 ---------------------------------------------------------------------
      1          6           0       -0.526371   -1.226614   -0.000040
      2          6           0       -1.425750   -0.144341   -0.000010
      3          7           0        0.601380    0.623109    0.000062
      4          6           0        0.765271   -0.733857   -0.000002
      5          7           0       -0.708304    0.990794    0.000040
      6          6           0        2.096762   -1.411154    0.000014
      7          1           0        2.690614   -1.146787    0.888132
      8          1           0        1.952941   -2.497140    0.000077
      9          1           0        2.690594   -1.146908   -0.888163
     10          6           0       -2.921250   -0.118721   -0.000010
     11          1           0       -3.326203   -0.627305   -0.886331
     12          1           0       -3.326194   -0.626470    0.886799
     13          1           0       -3.273334    0.919374   -0.000479
     14          6           0        1.628093    1.646937   -0.000041
     15          1           0        2.261186    1.570488    0.895095
     16          1           0        2.261198    1.570271   -0.895146
     17          1           0        1.117140    2.613653   -0.000160
 ---------------------------------------------------------------------

 SCF Done:  E(UB3LYP) =  -343.494944001     A.U. after    2 cycles

 The electronic state is 2-A.
 Alpha  occ. eigenvalues --  -14.40492 -14.34724 -10.23239 -10.22789 -10.21194
 Alpha  occ. eigenvalues --  -10.20325 -10.19869 -10.18118  -1.04879  -0.85328
 Alpha  occ. eigenvalues --   -0.80513  -0.73932  -0.71342  -0.67198  -0.57951
 Alpha  occ. eigenvalues --   -0.54622  -0.49855  -0.48431  -0.43563  -0.42685
 Alpha  occ. eigenvalues --   -0.42233  -0.41990  -0.41224  -0.39285  -0.37878
 Alpha  occ. eigenvalues --   -0.37354  -0.31451  -0.25928  -0.24621  -0.24142
 Alpha virt. eigenvalues --   -0.01578   0.00404   0.00683   0.00755   0.01487
 Alpha virt. eigenvalues --    0.02833   0.03008   0.03386   0.03686   0.04698
 Alpha virt. eigenvalues --    0.05402   0.06354   0.06671   0.07058   0.08008

  Beta  occ. eigenvalues --  -14.40413 -14.34546 -10.23225 -10.22766 -10.21157
  Beta  occ. eigenvalues --  -10.20315 -10.18344 -10.18115  -1.04454  -0.85030
  Beta  occ. eigenvalues --   -0.79784  -0.73847  -0.70707  -0.66532  -0.57027
  Beta  occ. eigenvalues --   -0.54109  -0.49384  -0.48391  -0.43335  -0.42694
  Beta  occ. eigenvalues --   -0.41978  -0.41968  -0.41097  -0.38949  -0.37782
  Beta  occ. eigenvalues --   -0.36963  -0.29326  -0.24188  -0.23413
  Beta virt. eigenvalues --   -0.10617  -0.01511   0.00437   0.00770   0.00793
  Beta virt. eigenvalues --    0.01512   0.02862   0.03110   0.03519   0.03724
  Beta virt. eigenvalues --    0.04700   0.05397   0.06727   0.07183   0.07340

 Mulliken atomic charges:
              1
     1  C   -0.765506
     2  C   -0.014878
     3  N    0.010191
     4  C    0.158431
     5  N   -0.802277
     6  C    1.201572
     7  H   -0.128904
     8  H   -0.341410
     9  H   -0.128870
    10  C    1.108013
    11  H   -0.132791
    12  H   -0.132688
    13  H   -0.359437
    14  C    1.280197
    15  H   -0.257243
    16  H   -0.257210
    17  H   -0.437190
 Sum of Mulliken atomic charges =   0.00000

 Dipole moment (field-independent basis, Debye):
    X=              2.3845    Y=             -0.0099    Z=             -0.0001  Tot=              2.3845
 Quadrupole moment (field-independent basis, Debye-Ang):
   XX=            -42.3466   YY=            -49.6320   ZZ=            -50.1198
   XY=              1.9575   XZ=              0.0000   YZ=             -0.0003

  Exact polarizability: 113.918   1.347  92.089  -0.001   0.001  63.367
 Approx polarizability: 153.717   2.844 146.339   0.000   0.002  95.073

                     1                      2                      3
                     A                      A                      A
 Frequencies --    50.5726                91.9788               118.7420
 Red. masses --     1.1513                 1.0355                 1.0523
 Frc consts  --     0.0017                 0.0052                 0.0087
 IR Inten    --     0.0373                 0.1583                 0.1406

                     4                      5                      6
                     A                      A                      A
 Frequencies --   166.6388               201.6223               251.8092
 Red. masses --     2.5631                 3.2182                 2.5226
 Frc consts  --     0.0419                 0.0771                 0.0942
 IR Inten    --     9.2477                 0.0243                 1.3753

                     7                      8                      9
                     A                      A                      A
 Frequencies --   272.6076               318.6131               489.6976
 Red. masses --     2.5818                 3.7921                 2.9826
 Frc consts  --     0.1130                 0.2268                 0.4214
 IR Inten    --     4.4359                 0.5810                 2.8413

                    10                     11                     12
                     A                      A                      A
 Frequencies --   587.9673               589.0032               638.3642
 Red. masses --     5.3521                 4.1125                 6.9064
 Frc consts  --     1.0901                 0.8406                 1.6582
 IR Inten    --     5.3766                 0.5312                 1.9843

                    13                     14                     15
                     A                      A                      A
 Frequencies --   646.3299               814.3133               981.1359
 Red. masses --     4.6439                 4.0675                 1.5966
 Frc consts  --     1.1430                 1.5891                 0.9055
 IR Inten    --    13.1939                 8.2199                 9.2550

                    16                     17                     18
                     A                      A                      A
 Frequencies --  1017.1037              1019.3824              1044.4075
 Red. masses --     1.8455                 3.7192                 1.4495
 Frc consts  --     1.1249                 2.2771                 0.9316
 IR Inten    --     4.8997                14.4773                 1.0819

                    19                     20                     21
                     A                      A                      A
 Frequencies --  1046.0468              1058.0399              1133.7735
 Red. masses --     1.4541                 2.2896                 1.3014
 Frc consts  --     0.9375                 1.5101                 0.9856
 IR Inten    --     0.2606                 4.6619                 0.0984

                    22                     23                     24
                     A                      A                      A
 Frequencies --  1185.3823              1307.1290              1363.1945
 Red. masses --     3.3597                 4.1786                 4.1803
 Frc consts  --     2.7814                 4.2064                 4.5770
 IR Inten    --     1.6900                 5.7375                28.4981

                    25                     26                     27
                     A                      A                      A
 Frequencies --  1391.8353              1396.7496              1413.9889
 Red. masses --     1.3572                 1.2492                 1.9024
 Frc consts  --     1.5490                 1.4359                 2.2411
 IR Inten    --     2.6375                 1.2011                34.7258

                    28                     29                     30
                     A                      A                      A
 Frequencies --  1439.0881              1456.9069              1458.3330
 Red. masses --     1.3579                 1.0410                 1.0419
 Frc consts  --     1.6569                 1.3018                 1.3055
 IR Inten    --    23.4090                 1.7167                 4.2745

                    31                     32                     33
                     A                      A                      A
 Frequencies --  1466.9619              1471.5819              1478.1540
 Red. masses --     1.0402                 1.2158                 1.2893
 Frc consts  --     1.3189                 1.5512                 1.6598
 IR Inten    --    16.2305                 6.7454                 3.9551

                    34                     35                     36
                     A                      A                      A
 Frequencies --  1485.2160              1503.3556              1571.0041
 Red. masses --     1.6072                 3.0055                 6.9595
 Frc consts  --     2.0889                 4.0021                10.1200
 IR Inten    --     7.0734                18.9314                24.0645

                    37                     38                     39
                     A                      A                      A
 Frequencies --  3023.5261              3032.8436              3035.8740
 Red. masses --     1.0396                 1.0363                 1.0370
 Frc consts  --     5.5994                 5.6161                 5.6310
 IR Inten    --    26.0032                71.4533                21.7667

                    40                     41                     42
                     A                      A                      A
 Frequencies --  3074.7525              3091.2037              3092.6100
 Red. masses --     1.1007                 1.1048                 1.1009
 Frc consts  --     6.1310                 6.2199                 6.2035
 IR Inten    --    16.5556                20.6659                14.7806

                    43                     44                     45
                     A                      A                      A
 Frequencies --  3130.0665              3133.1522              3161.8617
 Red. masses --     1.1010                 1.0978                 1.0995
 Frc consts  --     6.3553                 6.3497                 6.4761
 IR Inten    --     9.1853                 9.4263                 1.4436

 - Thermochemistry -
 -------------------
 Temperature   298.150 Kelvin.  Pressure   1.00000 Atm.
 Atom     1 has atomic number  6 and mass  12.00000

 Molecular mass:   109.07657 amu.
 Principal axes and moments of inertia in atomic units:
                           1         2         3
     Eigenvalues --   456.331361077.064731499.19046
           X            1.00000   0.00087   0.00000
           Y           -0.00087   1.00000   0.00000
           Z            0.00000   0.00000   1.00000
 This molecule is an asymmetric top.
 Rotational symmetry number  1.
 Warning -- assumption of classical behavior for rotation
           may cause significant error
 Rotational temperatures (Kelvin)      0.18980     0.08042     0.05777
 Rotational constants (GHZ):           3.95489     1.67561     1.20381
 Zero-point vibrational energy     369065.4 (Joules/Mol)
                                   88.20875 (Kcal/Mol)
 Warning -- explicit consideration of  11 degrees of freedom as
           vibrations may cause significant error
 Vibrational temperatures:     72.76   132.34   170.84   239.76   290.09
          (Kelvin)            362.30   392.22   458.41   704.56   845.95
                              847.44   918.46   929.92  1171.61  1411.63
                             1463.38  1466.66  1502.67  1505.03  1522.28
                             1631.25  1705.50  1880.66  1961.33  2002.54
                             2009.61  2034.41  2070.52  2096.16  2098.21
                             2110.63  2117.28  2126.73  2136.89  2162.99
                             2260.32  4350.17  4363.58  4367.94  4423.88
                             4447.55  4449.57  4503.46  4507.90  4549.21

 Zero-point correction=                           0.140570 (Hartree/Particle)
 Thermal correction to Energy=                    0.149440
 Thermal correction to Enthalpy=                  0.150384
 Thermal correction to Gibbs Free Energy=         0.105917
 Sum of electronic and zero-point Energies=           -343.354374
 Sum of electronic and thermal Energies=              -343.345504
 Sum of electronic and thermal Enthalpies=            -343.344560
 Sum of electronic and thermal Free Energies=         -343.389027

                     E (Thermal)             CV                S
                      KCal/Mol        Cal/Mol-Kelvin    Cal/Mol-Kelvin
 Total                   93.775             30.437             93.589
 Electronic               0.000              0.000              1.377
 Translational            0.889              2.981             39.977
 Rotational               0.889              2.981             28.090
 Vibrational             91.997             24.475             24.144
 Vibration     1          0.595              1.977              4.795
 Vibration     2          0.602              1.955              3.618
 Vibration     3          0.609              1.934              3.121
 Vibration     4          0.624              1.883              2.473
 Vibration     5          0.639              1.838              2.118
 Vibration     6          0.664              1.760              1.718
 Vibration     7          0.676              1.724              1.580
 Vibration     8          0.705              1.638              1.317
 Vibration     9          0.846              1.273              0.684
 Vibration    10          0.945              1.057              0.471
 Vibration    11          0.946              1.055              0.469

 Optimization completed.
    -- Stationary point found.
 Normal termination of Gaussian 09 at Tue Mar  6 03:26:02 2018.
