 Gaussian 09, Revision B.01,
 Gaussian 09:  EM64L-G09RevB.01 12-Aug-2010

 -------------------------------------------------
 #p Temperature=298.15 opt freq UB3LYP/aug-cc-pVDZ
 -------------------------------------------------

 --------------------------------------------
 1,3,5-Triazine-2+-UB3LYP-aug-cc-pVDZ-Triplet
 --------------------------------------------
 Symbolic Z-matrix:
 Charge =  1 Multiplicity = 3

 SCF Done:  E(UB3LYP) =  -279.300840720     A.U. after   31 cycles
 SCF Done:  E(UB3LYP) =  -279.341008426     A.U. after   18 cycles
 SCF Done:  E(UB3LYP) =  -279.348256410     A.U. after   15 cycles
 SCF Done:  E(UB3LYP) =  -279.348613157     A.U. after   17 cycles
 SCF Done:  E(UB3LYP) =  -279.348630229     A.U. after   19 cycles
 SCF Done:  E(UB3LYP) =  -279.348630252     A.U. after   19 cycles
 SCF Done:  E(UB3LYP) =  -279.348631135     A.U. after   19 cycles
 Optimization completed.
    -- Stationary point found.
 Normal termination of Gaussian 09 at Thu Jan 20 12:44:16 2005.

 ----------------------------------------------------------------------
 #P Geom=AllCheck Guess=TCheck SCRF=Check GenChk UB3LYP/Aug-CC-pVDZ Fre
 q
 ----------------------------------------------------------------------

 1,3,5-Triazine-2+-UB3LYP-aug-cc-pVDZ-Triplet
 --------------------------------------------
 Redundant internal coordinates taken from checkpoint file:
 1.chk,3,5-Triazine-2+-UB3LYP-aug-cc-pVDZ-Triplet.chk
 Charge =  1 Multiplicity = 3

                         Standard orientation:
 ---------------------------------------------------------------------
 Center     Atomic      Atomic             Coordinates (Angstroms)
 Number     Number       Type             X           Y           Z
 ---------------------------------------------------------------------
      1          6           0        1.127312   -0.610813   -0.000093
      2          6           0        0.000243    1.438499    0.000011
      3          6           0       -1.127513   -0.610448    0.000060
      4          1           0        2.099231   -1.112017    0.000135
      5          1           0       -2.099578   -1.111325   -0.000100
      6          7           0       -0.000232   -1.323271    0.000017
      7          7           0        1.088142    0.727166    0.000034
      8          7           0       -1.087896    0.727521   -0.000037
 ---------------------------------------------------------------------

 SCF Done:  E(UB3LYP) =  -279.348631135     A.U. after    1 cycles

 The electronic state is 3-A.
 Alpha  occ. eigenvalues --  -14.68352 -14.68349 -14.62081 -10.56637 -10.55594
 Alpha  occ. eigenvalues --  -10.55594  -1.33585  -1.20390  -1.19473  -0.97834
 Alpha  occ. eigenvalues --   -0.97134  -0.84748  -0.80377  -0.73843  -0.71728
 Alpha  occ. eigenvalues --   -0.70409  -0.61900  -0.60432  -0.59012  -0.58364
 Alpha  occ. eigenvalues --   -0.51380
 Alpha virt. eigenvalues --   -0.32822  -0.31349  -0.16064  -0.15887  -0.13092
 Alpha virt. eigenvalues --   -0.12524  -0.10463  -0.10301  -0.09941  -0.08027
 Alpha virt. eigenvalues --   -0.06586  -0.05739  -0.03929  -0.03285  -0.03237

  Beta  occ. eigenvalues --  -14.66825 -14.66824 -14.61823 -10.55539 -10.55539
  Beta  occ. eigenvalues --  -10.55175  -1.31670  -1.18215  -1.17483  -0.95687
  Beta  occ. eigenvalues --   -0.95600  -0.83043  -0.78486  -0.72785  -0.70193
  Beta  occ. eigenvalues --   -0.62652  -0.60590  -0.59627  -0.54602
  Beta virt. eigenvalues --   -0.44004  -0.36614  -0.32194  -0.29776  -0.15754
  Beta virt. eigenvalues --   -0.14499  -0.12943  -0.12290  -0.10129  -0.09995
  Beta virt. eigenvalues --   -0.09192  -0.07562  -0.06583  -0.05641  -0.03839

 Mulliken atomic charges:
              1
     1  C    0.640998
     2  C    0.107843
     3  C    0.641050
     4  H   -0.221139
     5  H   -0.221193
     6  N   -0.073809
     7  N    0.063136
     8  N    0.063114
 Sum of Mulliken atomic charges =   1.00000

 Dipole moment (field-independent basis, Debye):
    X=              0.0000    Y=             -0.3524    Z=              0.0000  Tot=              0.3524
 Quadrupole moment (field-independent basis, Debye-Ang):
   XX=            -18.7532   YY=            -28.5460   ZZ=            -30.6309
   XY=             -0.0017   XZ=              0.0002   YZ=              0.0000

  Exact polarizability:  62.992  -0.001  56.946   0.000   0.000  26.954
 Approx polarizability: 132.855  -0.004 111.777   0.000   0.000  40.478

                     1                      2                      3
                     A                      A                      A
 Frequencies --   385.4815               413.2985               553.1625
 Red. masses --     3.7688                 9.5954                 2.7536
 Frc consts  --     0.3300                 0.9657                 0.4964
 IR Inten    --     0.0000                 2.5674                49.4861

                     4                      5                      6
                     A                      A                      A
 Frequencies --   636.4937               663.5277               927.1208
 Red. masses --     9.4118                10.3554                12.0009
 Frc consts  --     2.2465                 2.6862                 6.0777
 IR Inten    --    71.6470                 6.1303                31.5791

                     7                      8                      9
                     A                      A                      A
 Frequencies --   959.7974               995.3084              1109.2930
 Red. masses --     1.5980                 1.4442                 7.5134
 Frc consts  --     0.8674                 0.8429                 5.4473
 IR Inten    --     5.2935                 0.0000                28.8039

                    10                     11                     12
                     A                      A                      A
 Frequencies --  1150.9465              1170.7539              1199.1422
 Red. masses --     4.1510                 1.6964                 7.4770
 Frc consts  --     3.2397                 1.3700                 6.3346
 IR Inten    --     1.0146                34.4700                60.7245

                    13                     14                     15
                     A                      A                      A
 Frequencies --  1340.7703              1416.0102              1574.6951
 Red. masses --     1.4113                 2.1899                10.4319
 Frc consts  --     1.4948                 2.5870                15.2408
 IR Inten    --    30.8066                 0.1950                13.5894

                    16                     17                     18
                     A                      A                      A
 Frequencies --  1578.1957              3181.5843              3185.5464
 Red. masses --    12.9057                 1.0925                 1.0963
 Frc consts  --    18.9389                 6.5157                 6.5547
 IR Inten    --    66.7716                77.6864                22.9795

 - Thermochemistry -
 -------------------
 Temperature   298.150 Kelvin.  Pressure   1.00000 Atm.
 Atom     1 has atomic number  6 and mass  12.00000

 Molecular mass:    80.02487 amu.
 Principal axes and moments of inertia in atomic units:
                           1         2         3
     Eigenvalues --   259.05452 269.78128 528.83581
           X            0.00035   1.00000   0.00001
           Y            1.00000  -0.00035   0.00000
           Z            0.00000  -0.00001   1.00000
 This molecule is an asymmetric top.
 Rotational symmetry number  1.
 Rotational temperatures (Kelvin)      0.33435     0.32105     0.16378
 Rotational constants (GHZ):           6.96665     6.68965     3.41267
 Zero-point vibrational energy     134227.8 (Joules/Mol)
                                   32.08120 (Kcal/Mol)
 Warning -- explicit consideration of   3 degrees of freedom as
           vibrations may cause significant error
 Vibrational temperatures:    554.62   594.64   795.88   915.77   954.67
          (Kelvin)           1333.92  1380.93  1432.03  1596.02  1655.95
                             1684.45  1725.30  1929.07  2037.32  2265.63
                             2270.67  4577.58  4583.28

 Zero-point correction=                           0.051125 (Hartree/Particle)
 Thermal correction to Energy=                    0.055267
 Thermal correction to Enthalpy=                  0.056212
 Thermal correction to Gibbs Free Energy=         0.022879
 Sum of electronic and zero-point Energies=           -279.297506
 Sum of electronic and thermal Energies=              -279.293364
 Sum of electronic and thermal Enthalpies=            -279.292420
 Sum of electronic and thermal Free Energies=         -279.325752

                     E (Thermal)             CV                S
                      KCal/Mol        Cal/Mol-Kelvin    Cal/Mol-Kelvin
 Total                   34.681             14.448             70.154
 Electronic               0.000              0.000              2.183
 Translational            0.889              2.981             39.054
 Rotational               0.889              2.981             25.117
 Vibrational             32.903              8.487              3.800
 Vibration     1          0.754              1.501              1.018
 Vibration     2          0.777              1.441              0.915
 Vibration     3          0.909              1.133              0.538

 Optimization completed.
    -- Stationary point found.
 Normal termination of Gaussian 09 at Thu Jan 20 12:45:47 2005.
