 Gaussian 09, Revision B.01,
 Gaussian 09:  EM64L-G09RevB.01 12-Aug-2010

 -------------------------------------------------
 #p Temperature=298.15 opt freq UB3LYP/aug-cc-pVDZ
 -------------------------------------------------

 ---------------------------------------------------
 1,3,5-(CH3)3-Pyrazole-4+-UB3LYP-aug-cc-pVDZ-Singlet
 ---------------------------------------------------
 Symbolic Z-matrix:
 Charge =  1 Multiplicity = 1

 SCF Done:  E(UB3LYP) =  -343.125318520     A.U. after   23 cycles
 SCF Done:  E(UB3LYP) =  -343.164972290     A.U. after   17 cycles
 SCF Done:  E(UB3LYP) =  -343.181564875     A.U. after   14 cycles
 SCF Done:  E(UB3LYP) =  -343.182858906     A.U. after   14 cycles
 SCF Done:  E(UB3LYP) =  -343.183133525     A.U. after   13 cycles
 SCF Done:  E(UB3LYP) =  -343.183065155     A.U. after   13 cycles
 SCF Done:  E(UB3LYP) =  -343.183207957     A.U. after   12 cycles
 SCF Done:  E(UB3LYP) =  -343.183212958     A.U. after   11 cycles
 SCF Done:  E(UB3LYP) =  -343.183213958     A.U. after   10 cycles
 SCF Done:  E(UB3LYP) =  -343.183215271     A.U. after   11 cycles
 SCF Done:  E(UB3LYP) =  -343.184063619     A.U. after   12 cycles
 SCF Done:  E(UB3LYP) =  -343.184069982     A.U. after   12 cycles
 SCF Done:  E(UB3LYP) =  -343.184070827     A.U. after   11 cycles
 SCF Done:  E(UB3LYP) =  -343.184071446     A.U. after   10 cycles
 SCF Done:  E(UB3LYP) =  -343.184071903     A.U. after   10 cycles
 SCF Done:  E(UB3LYP) =  -343.184072185     A.U. after   10 cycles
 SCF Done:  E(UB3LYP) =  -343.184072214     A.U. after   10 cycles
 SCF Done:  E(UB3LYP) =  -343.184072200     A.U. after   10 cycles
 SCF Done:  E(UB3LYP) =  -343.184072175     A.U. after    9 cycles
 Optimization completed.
    -- Stationary point found.
 Normal termination of Gaussian 09 at Tue Mar  6 00:01:50 2018.

 ----------------------------------------------------------------------
 #P Geom=AllCheck Guess=TCheck SCRF=Check GenChk UB3LYP/Aug-CC-pVDZ Fre
 q
 ----------------------------------------------------------------------

 1,3,5-(CH3)3-Pyrazole-4+-UB3LYP-aug-cc-pVDZ-Singlet
 ---------------------------------------------------
 Redundant internal coordinates taken from checkpoint file:
 1.chk,3,5-(CH3)3-Pyrazole-4+-UB3LYP-aug-cc-pVDZ-Singlet.chk
 Charge =  1 Multiplicity = 1

                         Standard orientation:
 ---------------------------------------------------------------------
 Center     Atomic      Atomic             Coordinates (Angstroms)
 Number     Number       Type             X           Y           Z
 ---------------------------------------------------------------------
      1          6           0       -0.479109   -1.052152    0.176308
      2          6           0       -1.509933   -0.180643   -0.027170
      3          7           0        0.659060    0.614326   -0.043702
      4          6           0        0.856700   -0.710728   -0.004660
      5          7           0       -0.694578    0.901282    0.029131
      6          6           0        2.121442   -1.487024   -0.049208
      7          1           0        2.698792   -1.345339    0.875463
      8          1           0        1.898668   -2.554178   -0.157028
      9          1           0        2.739387   -1.167569   -0.898595
     10          6           0       -2.990906   -0.156552   -0.047587
     11          1           0       -3.358474   -0.608082   -0.978751
     12          1           0       -3.387684   -0.732083    0.797963
     13          1           0       -3.338946    0.879367    0.013794
     14          6           0        1.595497    1.734464    0.016644
     15          1           0        1.898790    1.927817    1.052505
     16          1           0        2.468476    1.501005   -0.601174
     17          1           0        1.067466    2.605618   -0.388144
 ---------------------------------------------------------------------

 SCF Done:  E(UB3LYP) =  -343.184072175     A.U. after    1 cycles

 The electronic state is 1-A.
 Alpha  occ. eigenvalues --  -14.63344 -14.59861 -10.47459 -10.46446 -10.46200
 Alpha  occ. eigenvalues --  -10.40425 -10.37623 -10.36470  -1.28326  -1.08572
 Alpha  occ. eigenvalues --   -1.01462  -0.93685  -0.90483  -0.87648  -0.79252
 Alpha  occ. eigenvalues --   -0.76543  -0.68967  -0.68880  -0.63193  -0.62470
 Alpha  occ. eigenvalues --   -0.60926  -0.60030  -0.59063  -0.58203  -0.56681
 Alpha  occ. eigenvalues --   -0.56479  -0.51628  -0.46744  -0.45990
 Alpha virt. eigenvalues --   -0.34236  -0.20920  -0.16150  -0.14131  -0.11902
 Alpha virt. eigenvalues --   -0.10938  -0.10043  -0.09534  -0.08606  -0.07960
 Alpha virt. eigenvalues --   -0.07803  -0.06781  -0.06377  -0.05880  -0.05525

  Beta  occ. eigenvalues --  -14.63344 -14.59861 -10.47459 -10.46446 -10.46200
  Beta  occ. eigenvalues --  -10.40425 -10.37623 -10.36470  -1.28326  -1.08572
  Beta  occ. eigenvalues --   -1.01462  -0.93685  -0.90483  -0.87648  -0.79252
  Beta  occ. eigenvalues --   -0.76543  -0.68967  -0.68880  -0.63193  -0.62470
  Beta  occ. eigenvalues --   -0.60926  -0.60030  -0.59063  -0.58203  -0.56681
  Beta  occ. eigenvalues --   -0.56479  -0.51628  -0.46744  -0.45990
  Beta virt. eigenvalues --   -0.34236  -0.20920  -0.16150  -0.14131  -0.11902
  Beta virt. eigenvalues --   -0.10938  -0.10043  -0.09534  -0.08606  -0.07960
  Beta virt. eigenvalues --   -0.07803  -0.06781  -0.06377  -0.05880  -0.05525

 Mulliken atomic charges:
              1
     1  C   -0.267186
     2  C    0.022935
     3  N   -0.032989
     4  C    0.067341
     5  N   -0.531631
     6  C    1.033919
     7  H   -0.002892
     8  H   -0.216498
     9  H   -0.162433
    10  C    0.967744
    11  H   -0.025695
    12  H   -0.061211
    13  H   -0.251877
    14  C    1.222580
    15  H   -0.171945
    16  H   -0.294907
    17  H   -0.295254
 Sum of Mulliken atomic charges =   1.00000

 Dipole moment (field-independent basis, Debye):
    X=              1.0825    Y=             -0.9338    Z=             -0.3274  Tot=              1.4667
 Quadrupole moment (field-independent basis, Debye-Ang):
   XX=            -20.9568   YY=            -35.2036   ZZ=            -45.8136
   XY=              2.2260   XZ=              0.3263   YZ=              0.2274

  Exact polarizability: 106.794   0.669  85.767  -0.632  -1.393  55.055
 Approx polarizability: 148.445  -0.851 178.536  -1.576  -6.642  83.589

                     1                      2                      3
                     A                      A                      A
 Frequencies --    81.2721                85.3889                95.9081
 Red. masses --     1.0483                 1.0326                 1.1037
 Frc consts  --     0.0041                 0.0044                 0.0060
 IR Inten    --     0.4407                 0.5594                 0.8769

                     4                      5                      6
                     A                      A                      A
 Frequencies --   140.9718               201.4726               232.8388
 Red. masses --     3.0248                 3.8316                 2.5906
 Frc consts  --     0.0354                 0.0916                 0.0827
 IR Inten    --    11.6448                 2.7489                 1.2424

                     7                      8                      9
                     A                      A                      A
 Frequencies --   255.2083               319.9619               348.8400
 Red. masses --     2.7041                 3.8299                 4.4344
 Frc consts  --     0.1038                 0.2310                 0.3179
 IR Inten    --     3.5615                 0.9704                27.6818

                    10                     11                     12
                     A                      A                      A
 Frequencies --   459.1539               562.6707               587.8487
 Red. masses --     3.1021                 5.2092                 4.8837
 Frc consts  --     0.3853                 0.9717                 0.9943
 IR Inten    --     2.3836                29.3697                14.6017

                    13                     14                     15
                     A                      A                      A
 Frequencies --   630.9760               776.5795               877.9002
 Red. masses --     5.8008                 5.8283                 2.8592
 Frc consts  --     1.3607                 2.0709                 1.2983
 IR Inten    --     3.1220                15.6230                 3.9501

                    16                     17                     18
                     A                      A                      A
 Frequencies --   921.7930              1024.0382              1034.5768
 Red. masses --     2.8092                 1.9880                 1.4636
 Frc consts  --     1.4064                 1.2283                 0.9230
 IR Inten    --    19.2979                 3.7218                 6.0952

                    19                     20                     21
                     A                      A                      A
 Frequencies --  1038.1232              1046.6588              1122.8567
 Red. masses --     1.5400                 1.7892                 1.4017
 Frc consts  --     0.9778                 1.1548                 1.0412
 IR Inten    --     2.0879                 1.9056                 0.6317

                    22                     23                     24
                     A                      A                      A
 Frequencies --  1151.4327              1202.5740              1242.8701
 Red. masses --     2.8837                 2.8511                 3.6283
 Frc consts  --     2.2526                 2.4293                 3.3023
 IR Inten    --     9.0955                20.5716                 3.9326

                    25                     26                     27
                     A                      A                      A
 Frequencies --  1398.2773              1402.2251              1405.4044
 Red. masses --     2.0263                 1.2441                 1.2261
 Frc consts  --     2.3342                 1.4413                 1.4268
 IR Inten    --    31.5835                 0.8763                 5.4908

                    28                     29                     30
                     A                      A                      A
 Frequencies --  1425.8825              1443.6814              1444.9517
 Red. masses --     1.1342                 1.0545                 1.0518
 Frc consts  --     1.3587                 1.2949                 1.2939
 IR Inten    --     3.3803                 0.5892                25.1038

                    31                     32                     33
                     A                      A                      A
 Frequencies --  1448.2207              1454.2295              1470.2359
 Red. masses --     1.0427                 1.0442                 1.0723
 Frc consts  --     1.2885                 1.3011                 1.3656
 IR Inten    --    15.4997                12.5930                11.9361

                    34                     35                     36
                     A                      A                      A
 Frequencies --  1489.5715              1570.2826              1672.6785
 Red. masses --     1.7098                 6.9440                10.6770
 Frc consts  --     2.2352                10.0882                17.6004
 IR Inten    --     2.7468                21.4264                75.6899

                    37                     38                     39
                     A                      A                      A
 Frequencies --  3047.3907              3057.4957              3059.9747
 Red. masses --     1.0374                 1.0359                 1.0310
 Frc consts  --     5.6761                 5.7055                 5.6876
 IR Inten    --     2.0758                 2.9297                 1.4768

                    40                     41                     42
                     A                      A                      A
 Frequencies --  3118.6526              3131.2296              3149.7823
 Red. masses --     1.1007                 1.1015                 1.1029
 Frc consts  --     6.3076                 6.3629                 6.4467
 IR Inten    --     0.1906                 0.5545                 0.1499

                    43                     44                     45
                     A                      A                      A
 Frequencies --  3150.4101              3165.5799              3167.5392
 Red. masses --     1.1067                 1.1037                 1.1069
 Frc consts  --     6.4719                 6.5165                 6.5434
 IR Inten    --     2.5981                 1.4415                 1.2962

 - Thermochemistry -
 -------------------
 Temperature   298.150 Kelvin.  Pressure   1.00000 Atm.
 Atom     1 has atomic number  6 and mass  12.00000

 Molecular mass:   109.07657 amu.
 Principal axes and moments of inertia in atomic units:
                           1         2         3
     Eigenvalues --   460.588861116.141891538.67059
           X            1.00000   0.00036   0.00077
           Y           -0.00036   0.99999   0.00344
           Z           -0.00077  -0.00344   0.99999
 This molecule is an asymmetric top.
 Rotational symmetry number  1.
 Warning -- assumption of classical behavior for rotation
           may cause significant error
 Rotational temperatures (Kelvin)      0.18805     0.07760     0.05629
 Rotational constants (GHZ):           3.91833     1.61695     1.17292
 Zero-point vibrational energy     365552.5 (Joules/Mol)
                                   87.36915 (Kcal/Mol)
 Warning -- explicit consideration of  12 degrees of freedom as
           vibrations may cause significant error
 Vibrational temperatures:    116.93   122.86   137.99   202.83   289.87
          (Kelvin)            335.00   367.19   460.35   501.90   660.62
                              809.56   845.78   907.83  1117.32  1263.10
                             1326.25  1473.36  1488.52  1493.63  1505.91
                             1615.54  1656.65  1730.23  1788.21  2011.81
                             2017.49  2022.06  2051.52  2077.13  2078.96
                             2083.66  2092.31  2115.34  2143.16  2259.28
                             2406.61  4384.51  4399.05  4402.62  4487.04
                             4505.14  4531.83  4532.73  4554.56  4557.38

 Zero-point correction=                           0.139232 (Hartree/Particle)
 Thermal correction to Energy=                    0.148521
 Thermal correction to Enthalpy=                  0.149465
 Thermal correction to Gibbs Free Energy=         0.105002
 Sum of electronic and zero-point Energies=           -343.044841
 Sum of electronic and thermal Energies=              -343.035551
 Sum of electronic and thermal Enthalpies=            -343.034607
 Sum of electronic and thermal Free Energies=         -343.079070

                     E (Thermal)             CV                S
                      KCal/Mol        Cal/Mol-Kelvin    Cal/Mol-Kelvin
 Total                   93.198             31.785             93.580
 Electronic               0.000              0.000              0.000
 Translational            0.889              2.981             39.977
 Rotational               0.889              2.981             28.161
 Vibrational             91.421             25.823             25.442
 Vibration     1          0.600              1.962              3.860
 Vibration     2          0.601              1.959              3.763
 Vibration     3          0.603              1.952              3.536
 Vibration     4          0.615              1.912              2.791
 Vibration     5          0.638              1.838              2.120
 Vibration     6          0.654              1.791              1.857
 Vibration     7          0.666              1.754              1.694
 Vibration     8          0.706              1.635              1.310
 Vibration     9          0.726              1.578              1.171
 Vibration    10          0.817              1.341              0.769
 Vibration    11          0.918              1.112              0.519
 Vibration    12          0.945              1.058              0.471

 Optimization completed.
    -- Stationary point found.
 Normal termination of Gaussian 09 at Tue Mar  6 00:16:50 2018.
