 Gaussian 09, Revision B.01,
 Gaussian 09:  EM64L-G09RevB.01 12-Aug-2010

 -------------------------------------------------
 #p Temperature=298.15 opt freq UB3LYP/aug-cc-pVDZ
 -------------------------------------------------

 ------------------------------------------------------
 1,3,5-(CH3)3-Pyrazole-4-N2+-UB3LYP-aug-cc-pVDZ-Singlet
 ------------------------------------------------------
 Symbolic Z-matrix:
 Charge =  1 Multiplicity = 1

 SCF Done:  E(UB3LYP) =  -452.172732912     A.U. after   19 cycles
 SCF Done:  E(UB3LYP) =  -452.402023424     A.U. after   15 cycles
 SCF Done:  E(UB3LYP) =  -452.631207706     A.U. after   16 cycles
 SCF Done:  E(UB3LYP) =  -452.677169249     A.U. after   15 cycles
 SCF Done:  E(UB3LYP) =  -452.761523833     A.U. after   15 cycles
 SCF Done:  E(UB3LYP) =  -452.800932136     A.U. after   14 cycles
 SCF Done:  E(UB3LYP) =  -452.809503615     A.U. after   13 cycles
 SCF Done:  E(UB3LYP) =  -452.814425326     A.U. after   16 cycles
 SCF Done:  E(UB3LYP) =  -452.815606093     A.U. after   16 cycles
 SCF Done:  E(UB3LYP) =  -452.815818069     A.U. after   16 cycles
 SCF Done:  E(UB3LYP) =  -452.817043209     A.U. after   12 cycles
 SCF Done:  E(UB3LYP) =  -452.814908473     A.U. after   14 cycles
 SCF Done:  E(UB3LYP) =  -452.817051306     A.U. after   13 cycles
 SCF Done:  E(UB3LYP) =  -452.817073141     A.U. after   16 cycles
 SCF Done:  E(UB3LYP) =  -452.817063546     A.U. after   16 cycles
 SCF Done:  E(UB3LYP) =  -452.817103022     A.U. after   12 cycles
 SCF Done:  E(UB3LYP) =  -452.817104029     A.U. after    9 cycles
 SCF Done:  E(UB3LYP) =  -452.817104243     A.U. after    9 cycles
 SCF Done:  E(UB3LYP) =  -452.817104333     A.U. after    9 cycles
 Optimization completed.
    -- Stationary point found.
 Normal termination of Gaussian 09 at Fri Mar 16 04:57:35 2018.

 ----------------------------------------------------------------------
 #P Geom=AllCheck Guess=TCheck SCRF=Check GenChk UB3LYP/Aug-CC-pVDZ Fre
 q
 ----------------------------------------------------------------------

 1,3,5-(CH3)3-Pyrazole-4-N2+-UB3LYP-aug-cc-pVDZ-Singlet
 ------------------------------------------------------
 Redundant internal coordinates taken from checkpoint file:
 1.chk,3,5-(CH3)3-Pyrazole-4-N2+-UB3LYP-aug-cc-pVDZ-Singlet.chk
 Charge =  1 Multiplicity = 1

                         Standard orientation:
 ---------------------------------------------------------------------
 Center     Atomic      Atomic             Coordinates (Angstroms)
 Number     Number       Type             X           Y           Z
 ---------------------------------------------------------------------
      1          7           0       -1.783048    1.019198   -0.000084
      2          7           0       -2.734913    1.613025    0.000223
      3          6           0       -0.678477    0.265868   -0.000088
      4          6           0       -0.618336   -1.180957   -0.000083
      5          7           0        1.390658   -0.359278   -0.000220
      6          6           0        0.657552    0.754368   -0.000145
      7          7           0        0.649188   -1.521334   -0.000125
      8          6           0        1.174284    2.152596   -0.000045
      9          1           0        1.790728    2.342006   -0.889584
     10          1           0        0.347964    2.871537   -0.000672
     11          1           0        1.789556    2.342342    0.890326
     12          6           0       -1.736236   -2.165445    0.000071
     13          1           0       -2.370314   -2.041359    0.889452
     14          1           0       -2.369941   -2.042201   -0.889642
     15          1           0       -1.323185   -3.178903    0.000637
     16          6           0        2.847596   -0.488641    0.000262
     17          1           0        3.300400    0.505265   -0.000727
     18          1           0        3.151497   -1.042377    0.895251
     19          1           0        3.151799   -1.044325   -0.893423
 ---------------------------------------------------------------------

 SCF Done:  E(UB3LYP) =  -452.817104333     A.U. after    1 cycles

 The electronic state is 1-A.
 Alpha  occ. eigenvalues --  -14.70859 -14.66219 -14.60828 -14.53677 -10.45115
 Alpha  occ. eigenvalues --  -10.44944 -10.42331 -10.38732 -10.37468 -10.34656
 Alpha  occ. eigenvalues --   -1.35616  -1.24736  -1.08192  -1.04938  -0.96279
 Alpha  occ. eigenvalues --   -0.91367  -0.89033  -0.82793  -0.76763  -0.75280
 Alpha  occ. eigenvalues --   -0.71570  -0.68323  -0.67770  -0.66259  -0.66082
 Alpha  occ. eigenvalues --   -0.61042  -0.59586  -0.59443  -0.58920  -0.57546
 Alpha  occ. eigenvalues --   -0.56808  -0.54745  -0.54489  -0.47827  -0.45823
 Alpha  occ. eigenvalues --   -0.44302
 Alpha virt. eigenvalues --   -0.26976  -0.26534  -0.17637  -0.14743  -0.11984
 Alpha virt. eigenvalues --   -0.11348  -0.11000  -0.09508  -0.09189  -0.08510
 Alpha virt. eigenvalues --   -0.07718  -0.07624  -0.06613  -0.06565  -0.05652

  Beta  occ. eigenvalues --  -14.70859 -14.66219 -14.60828 -14.53677 -10.45115
  Beta  occ. eigenvalues --  -10.44944 -10.42331 -10.38732 -10.37468 -10.34656
  Beta  occ. eigenvalues --   -1.35616  -1.24736  -1.08192  -1.04938  -0.96279
  Beta  occ. eigenvalues --   -0.91367  -0.89033  -0.82793  -0.76763  -0.75280
  Beta  occ. eigenvalues --   -0.71570  -0.68323  -0.67770  -0.66259  -0.66082
  Beta  occ. eigenvalues --   -0.61042  -0.59586  -0.59443  -0.58920  -0.57546
  Beta  occ. eigenvalues --   -0.56808  -0.54745  -0.54489  -0.47827  -0.45823
  Beta  occ. eigenvalues --   -0.44302
  Beta virt. eigenvalues --   -0.26976  -0.26534  -0.17637  -0.14743  -0.11984
  Beta virt. eigenvalues --   -0.11348  -0.11000  -0.09508  -0.09189  -0.08510
  Beta virt. eigenvalues --   -0.07718  -0.07624  -0.06613  -0.06565  -0.05652

 Mulliken atomic charges:
              1
     1  N    0.354177
     2  N   -0.605887
     3  C    0.832047
     4  C   -0.259118
     5  N   -0.227347
     6  C   -0.375332
     7  N   -0.351425
     8  C    0.974184
     9  H   -0.021988
    10  H   -0.359156
    11  H   -0.021449
    12  C    0.992951
    13  H   -0.055039
    14  H   -0.054951
    15  H   -0.338092
    16  C    1.316843
    17  H   -0.461676
    18  H   -0.169229
    19  H   -0.169513
 Sum of Mulliken atomic charges =   1.00000

 Dipole moment (field-independent basis, Debye):
    X=              0.4426    Y=              2.4225    Z=              0.0005  Tot=              2.4626
 Quadrupole moment (field-independent basis, Debye-Ang):
   XX=            -32.5650   YY=            -44.7222   ZZ=            -55.6462
   XY=              4.3561   XZ=              0.0014   YZ=             -0.0005

  Exact polarizability: 133.859 -10.796 109.490  -0.001   0.000  60.380
 Approx polarizability: 230.453 -49.916 175.718  -0.008   0.008  94.117

                     1                      2                      3
                     A                      A                      A
 Frequencies --    55.8143                95.1222               103.0127
 Red. masses --     1.0446                 1.0602                 2.2337
 Frc consts  --     0.0019                 0.0057                 0.0140
 IR Inten    --     0.2137                 0.6961                 0.2103

                     4                      5                      6
                     A                      A                      A
 Frequencies --   119.2612               131.9511               175.0752
 Red. masses --     1.2613                 6.4111                 2.7647
 Frc consts  --     0.0106                 0.0658                 0.0499
 IR Inten    --     0.3500                 0.4373                 5.2867

                     7                      8                      9
                     A                      A                      A
 Frequencies --   238.5844               253.8867               287.7515
 Red. masses --     5.4897                 2.7044                 2.6002
 Frc consts  --     0.1841                 0.1027                 0.1269
 IR Inten    --     2.8425                 0.7790                 0.8794

                    10                     11                     12
                     A                      A                      A
 Frequencies --   346.8495               420.6288               517.9962
 Red. masses --     3.5629                 5.1611                 6.5258
 Frc consts  --     0.2525                 0.5380                 1.0317
 IR Inten    --     0.0256                 1.0487                 1.8684

                    13                     14                     15
                     A                      A                      A
 Frequencies --   528.4057               594.0156               598.5625
 Red. masses --    12.1616                 4.3949                 4.0720
 Frc consts  --     2.0007                 0.9137                 0.8596
 IR Inten    --     1.4928                 5.2459                 5.3012

                    16                     17                     18
                     A                      A                      A
 Frequencies --   641.1359               656.5970               697.4539
 Red. masses --     5.9648                 4.5586                 5.0282
 Frc consts  --     1.4446                 1.1579                 1.4411
 IR Inten    --     0.5317                 1.1620                11.7704

                    19                     20                     21
                     A                      A                      A
 Frequencies --   865.0006               989.7883              1033.3980
 Red. masses --     3.3379                 2.2597                 1.8048
 Frc consts  --     1.4715                 1.3043                 1.1356
 IR Inten    --     4.4358                 3.5365                23.6242

                    22                     23                     24
                     A                      A                      A
 Frequencies --  1034.3107              1042.3429              1046.6796
 Red. masses --     1.4890                 1.9723                 1.5387
 Frc consts  --     0.9385                 1.2625                 0.9932
 IR Inten    --     0.6284                 2.7626                 3.3961

                    25                     26                     27
                     A                      A                      A
 Frequencies --  1137.6087              1158.1954              1225.0813
 Red. masses --     1.3428                 3.5617                 2.8743
 Frc consts  --     1.0239                 2.8150                 2.5416
 IR Inten    --     0.0059                 0.3838                 0.2494

                    28                     29                     30
                     A                      A                      A
 Frequencies --  1290.9916              1384.7024              1404.9055
 Red. masses --     6.0799                 2.0085                 1.2363
 Frc consts  --     5.9703                 2.2690                 1.4377
 IR Inten    --     1.0847               109.0774                 5.5937

                    31                     32                     33
                     A                      A                      A
 Frequencies --  1412.2080              1431.0821              1438.9236
 Red. masses --     1.8061                 1.5810                 1.2045
 Frc consts  --     2.1222                 1.9077                 1.4693
 IR Inten    --    83.8081                73.8447                19.3966

                    34                     35                     36
                     A                      A                      A
 Frequencies --  1445.8752              1453.2716              1455.7597
 Red. masses --     1.0373                 1.0398                 1.2549
 Frc consts  --     1.2777                 1.2939                 1.5669
 IR Inten    --    23.1097                13.4044                 7.2659

                    37                     38                     39
                     A                      A                      A
 Frequencies --  1461.2219              1475.6507              1508.6100
 Red. masses --     1.0383                 1.1338                 2.3206
 Frc consts  --     1.3062                 1.4546                 3.1118
 IR Inten    --     0.0512                16.4512                36.3796

                    40                     41                     42
                     A                      A                      A
 Frequencies --  1570.6896              1588.9691              2290.6330
 Red. masses --     5.8241                 6.4501                13.9550
 Frc consts  --     8.4656                 9.5951                43.1412
 IR Inten    --    65.4876                38.6451               381.2412

                    43                     44                     45
                     A                      A                      A
 Frequencies --  3043.0277              3046.8764              3074.6490
 Red. masses --     1.0383                 1.0378                 1.0325
 Frc consts  --     5.6649                 5.6764                 5.7510
 IR Inten    --     1.4817                 1.3519                 1.7972

                    46                     47                     48
                     A                      A                      A
 Frequencies --  3106.2063              3114.4174              3145.0434
 Red. masses --     1.1010                 1.1016                 1.1014
 Frc consts  --     6.2589                 6.2954                 6.4187
 IR Inten    --     0.7011                 0.1363                 1.2996

                    49                     50                     51
                     A                      A                      A
 Frequencies --  3157.1499              3158.2008              3188.7129
 Red. masses --     1.1064                 1.1009                 1.1056
 Frc consts  --     6.4977                 6.4696                 6.6236
 IR Inten    --     0.0267                 0.1448                 0.8305

 - Thermochemistry -
 -------------------
 Temperature   298.150 Kelvin.  Pressure   1.00000 Atm.
 Atom     1 has atomic number  7 and mass  14.00307

 Molecular mass:   137.08272 amu.
 Principal axes and moments of inertia in atomic units:
                           1         2         3
     Eigenvalues --   953.869981446.551432366.11341
           X            0.99113   0.13289   0.00001
           Y           -0.13289   0.99113   0.00000
           Z           -0.00001   0.00000   1.00000
 This molecule is an asymmetric top.
 Rotational symmetry number  1.
 Warning -- assumption of classical behavior for rotation
           may cause significant error
 Rotational temperatures (Kelvin)      0.09080     0.05988     0.03661
 Rotational constants (GHZ):           1.89202     1.24762     0.76275
 Zero-point vibrational energy     398609.4 (Joules/Mol)
                                   95.26993 (Kcal/Mol)
 Warning -- explicit consideration of  15 degrees of freedom as
           vibrations may cause significant error
 Vibrational temperatures:     80.30   136.86   148.21   171.59   189.85
          (Kelvin)            251.89   343.27   365.29   414.01   499.04
                              605.19   745.28   760.26   854.65   861.20
                              922.45   944.70  1003.48  1244.54  1424.08
                             1486.83  1488.14  1499.70  1505.94  1636.76
                             1666.38  1762.62  1857.45  1992.28  2021.34
                             2031.85  2059.01  2070.29  2080.29  2090.93
                             2094.51  2102.37  2123.13  2170.55  2259.87
                             2286.17  3295.71  4378.23  4383.77  4423.73
                             4469.13  4480.95  4525.01  4542.43  4543.94
                             4587.84

 Zero-point correction=                           0.151822 (Hartree/Particle)
 Thermal correction to Energy=                    0.162493
 Thermal correction to Enthalpy=                  0.163437
 Thermal correction to Gibbs Free Energy=         0.115277
 Sum of electronic and zero-point Energies=           -452.665282
 Sum of electronic and thermal Energies=              -452.654612
 Sum of electronic and thermal Enthalpies=            -452.653667
 Sum of electronic and thermal Free Energies=         -452.701828

                     E (Thermal)             CV                S
                      KCal/Mol        Cal/Mol-Kelvin    Cal/Mol-Kelvin
 Total                  101.966             37.213            101.362
 Electronic               0.000              0.000              0.000
 Translational            0.889              2.981             40.658
 Rotational               0.889              2.981             29.569
 Vibrational            100.188             31.252             31.135
 Vibration     1          0.596              1.975              4.600
 Vibration     2          0.603              1.953              3.552
 Vibration     3          0.605              1.947              3.397
 Vibration     4          0.609              1.933              3.112
 Vibration     5          0.612              1.921              2.917
 Vibration     6          0.627              1.873              2.380
 Vibration     7          0.657              1.782              1.813
 Vibration     8          0.665              1.756              1.703
 Vibration     9          0.685              1.696              1.487
 Vibration    10          0.725              1.582              1.180
 Vibration    11          0.783              1.425              0.890
 Vibration    12          0.873              1.210              0.615
 Vibration    13          0.883              1.187              0.591
 Vibration    14          0.952              1.045              0.460
 Vibration    15          0.957              1.035              0.452

 Normal termination of Gaussian 09 at Fri Mar 16 05:26:32 2018.
