 Gaussian 09, Revision B.01,
 Gaussian 09:  EM64L-G09RevB.01 12-Aug-2010

 -------------------------------------------------
 #p Temperature=298.15 opt freq UB3LYP/aug-cc-pVDZ
 -------------------------------------------------

 --------------------------------------------
 1,3,5-Triazine-2+-UB3LYP-aug-cc-pVDZ-Singlet
 --------------------------------------------
 Symbolic Z-matrix:
 Charge =  1 Multiplicity = 1

 SCF Done:  E(UB3LYP) =  -279.321759219     A.U. after   15 cycles
 SCF Done:  E(UB3LYP) =  -279.382049184     A.U. after   14 cycles
 SCF Done:  E(UB3LYP) =  -279.406507718     A.U. after   12 cycles
 SCF Done:  E(UB3LYP) =  -279.409232230     A.U. after   13 cycles
 SCF Done:  E(UB3LYP) =  -279.409758957     A.U. after   13 cycles
 SCF Done:  E(UB3LYP) =  -279.409806095     A.U. after   17 cycles
 SCF Done:  E(UB3LYP) =  -279.409809061     A.U. after   16 cycles
 SCF Done:  E(UB3LYP) =  -279.409808145     A.U. after    9 cycles
 SCF Done:  E(UB3LYP) =  -279.409809498     A.U. after   16 cycles
 Optimization completed.
    -- Stationary point found.
 Normal termination of Gaussian 09 at Tue Mar  6 00:33:45 2018.

 ----------------------------------------------------------------------
 #P Geom=AllCheck Guess=TCheck SCRF=Check GenChk UB3LYP/Aug-CC-pVDZ Fre
 q
 ----------------------------------------------------------------------

 1,3,5-Triazine-2+-UB3LYP-aug-cc-pVDZ-Singlet
 --------------------------------------------
 Redundant internal coordinates taken from checkpoint file:
 1.chk,3,5-Triazine-2+-UB3LYP-aug-cc-pVDZ-Singlet.chk
 Charge =  1 Multiplicity = 1

                         Standard orientation:
 ---------------------------------------------------------------------
 Center     Atomic      Atomic             Coordinates (Angstroms)
 Number     Number       Type             X           Y           Z
 ---------------------------------------------------------------------
      1          6           0        1.148744    0.602837   -0.000020
      2          6           0        0.000004   -1.157500    0.000002
      3          6           0       -1.148747    0.602838    0.000011
      4          1           0        2.113168    1.112727    0.000006
      5          1           0       -2.113156    1.112713    0.000010
      6          7           0       -0.000003    1.250403    0.000003
      7          7           0        1.182359   -0.804806    0.000014
      8          7           0       -1.182359   -0.804810   -0.000013
 ---------------------------------------------------------------------

 SCF Done:  E(UB3LYP) =  -279.409809498     A.U. after    1 cycles

 The electronic state is 1-A.
 Alpha  occ. eigenvalues --  -14.65654 -14.65653 -14.62529 -10.58816 -10.56874
 Alpha  occ. eigenvalues --  -10.56874  -1.33463  -1.22072  -1.19487  -0.98331
 Alpha  occ. eigenvalues --   -0.92858  -0.83288  -0.79432  -0.74286  -0.70528
 Alpha  occ. eigenvalues --   -0.68016  -0.61678  -0.59969  -0.58486  -0.56220
 Alpha virt. eigenvalues --   -0.36509  -0.34191  -0.28874  -0.16353  -0.14959
 Alpha virt. eigenvalues --   -0.12709  -0.12511  -0.10716  -0.10640  -0.09290
 Alpha virt. eigenvalues --   -0.08260  -0.06407  -0.06051  -0.04031  -0.03862

  Beta  occ. eigenvalues --  -14.65654 -14.65653 -14.62529 -10.58816 -10.56874
  Beta  occ. eigenvalues --  -10.56874  -1.33463  -1.22072  -1.19487  -0.98331
  Beta  occ. eigenvalues --   -0.92858  -0.83288  -0.79432  -0.74286  -0.70528
  Beta  occ. eigenvalues --   -0.68016  -0.61678  -0.59969  -0.58486  -0.56220
  Beta virt. eigenvalues --   -0.36509  -0.34191  -0.28874  -0.16353  -0.14959
  Beta virt. eigenvalues --   -0.12709  -0.12511  -0.10716  -0.10640  -0.09290
  Beta virt. eigenvalues --   -0.08260  -0.06407  -0.06051  -0.04031  -0.03862

 Mulliken atomic charges:
              1
     1  C    0.695173
     2  C    0.016937
     3  C    0.695240
     4  H   -0.187100
     5  H   -0.187145
     6  N   -0.047591
     7  N    0.007256
     8  N    0.007230
 Sum of Mulliken atomic charges =   1.00000

 Dipole moment (field-independent basis, Debye):
    X=              0.0000    Y=              0.4275    Z=              0.0000  Tot=              0.4275
 Quadrupole moment (field-independent basis, Debye-Ang):
   XX=            -21.0939   YY=            -26.6836   ZZ=            -30.5151
   XY=              0.0000   XZ=             -0.0001   YZ=              0.0000

  Exact polarizability:  55.735   0.000  51.750   0.000   0.000  25.973
 Approx polarizability: 112.798   0.000 110.584   0.000   0.000  39.577

                     1                      2                      3
                     A                      A                      A
 Frequencies --   416.6525               501.9559               514.2055
 Red. masses --     3.8824                 3.7935                10.4699
 Frc consts  --     0.3971                 0.5632                 1.6310
 IR Inten    --     0.0000                 2.1752                41.7165

                     4                      5                      6
                     A                      A                      A
 Frequencies --   667.7775               747.3289               840.3212
 Red. masses --     5.1290                12.5438                 9.7208
 Frc consts  --     1.3476                 4.1277                 4.0443
 IR Inten    --    42.1637                 0.6509                16.7777

                     7                      8                      9
                     A                      A                      A
 Frequencies --   857.3643               954.1769               973.7726
 Red. masses --    10.8562                 1.5836                 1.4096
 Frc consts  --     4.7018                 0.8495                 0.7875
 IR Inten    --    13.5748                 8.5933                 0.0000

                    10                     11                     12
                     A                      A                      A
 Frequencies --  1072.8917              1174.1516              1294.4141
 Red. masses --     6.7213                 2.0906                 1.1479
 Frc consts  --     4.5584                 1.6982                 1.1332
 IR Inten    --   157.2844                30.6272                 1.3588

                    13                     14                     15
                     A                      A                      A
 Frequencies --  1380.9107              1429.0458              1449.2314
 Red. masses --     1.8799                10.1090                 6.7255
 Frc consts  --     2.1121                12.1633                 8.3225
 IR Inten    --    34.6248                73.3891                89.7875

                    16                     17                     18
                     A                      A                      A
 Frequencies --  1923.3998              3223.1156              3226.0083
 Red. masses --    12.3767                 1.0968                 1.1011
 Frc consts  --    26.9769                 6.7134                 6.7517
 IR Inten    --   311.5071                59.2816                18.0321

 - Thermochemistry -
 -------------------
 Temperature   298.150 Kelvin.  Pressure   1.00000 Atm.
 Atom     1 has atomic number  6 and mass  12.00000

 Molecular mass:    80.02487 amu.
 Principal axes and moments of inertia in atomic units:
                           1         2         3
     Eigenvalues --   240.21912 285.05471 525.27383
           X            1.00000   0.00000   0.00000
           Y            0.00000   1.00000   0.00000
           Z            0.00000   0.00000   1.00000
 This molecule is an asymmetric top.
 Rotational symmetry number  1.
 Rotational temperatures (Kelvin)      0.36056     0.30385     0.16489
 Rotational constants (GHZ):           7.51290     6.33121     3.43581
 Zero-point vibrational energy     135457.5 (Joules/Mol)
                                   32.37512 (Kcal/Mol)
 Warning -- explicit consideration of   3 degrees of freedom as
           vibrations may cause significant error
 Vibrational temperatures:    599.47   722.20   739.83   960.78  1075.24
          (Kelvin)           1209.03  1233.55  1372.85  1401.04  1543.65
                             1689.34  1862.37  1986.82  2056.08  2085.12
                             2767.34  4637.34  4641.50

 Zero-point correction=                           0.051593 (Hartree/Particle)
 Thermal correction to Energy=                    0.055672
 Thermal correction to Enthalpy=                  0.056616
 Thermal correction to Gibbs Free Energy=         0.024459
 Sum of electronic and zero-point Energies=           -279.358216
 Sum of electronic and thermal Energies=              -279.354138
 Sum of electronic and thermal Enthalpies=            -279.353194
 Sum of electronic and thermal Free Energies=         -279.385350

                     E (Thermal)             CV                S
                      KCal/Mol        Cal/Mol-Kelvin    Cal/Mol-Kelvin
 Total                   34.935             14.469             67.679
 Electronic               0.000              0.000              0.000
 Translational            0.889              2.981             39.054
 Rotational               0.889              2.981             25.090
 Vibrational             33.157              8.508              3.536
 Vibration     1          0.780              1.434              0.903
 Vibration     2          0.857              1.246              0.653
 Vibration     3          0.869              1.219              0.624

 Optimization completed.
    -- Stationary point found.
 Normal termination of Gaussian 09 at Tue Mar  6 00:35:13 2018.
