 Gaussian 09, Revision B.01,
 Gaussian 09:  EM64L-G09RevB.01 12-Aug-2010

 -------------------------------------------------
 #p Temperature=298.15 opt freq UB3LYP/aug-cc-pVDZ
 -------------------------------------------------

 ------------------------------------------------------
 1,3,5-(CH3)3-Pyrazole-4-N2+-UB3LYP-aug-cc-pVDZ-Triplet
 ------------------------------------------------------
 Symbolic Z-matrix:
 Charge =  1 Multiplicity = 3

 SCF Done:  E(UB3LYP) =  -452.675538861     A.U. after   26 cycles
 SCF Done:  E(UB3LYP) =  -452.704627252     A.U. after   27 cycles
 SCF Done:  E(UB3LYP) =  -452.711474313     A.U. after   23 cycles
 SCF Done:  E(UB3LYP) =  -452.712582829     A.U. after   19 cycles
 SCF Done:  E(UB3LYP) =  -452.712706456     A.U. after   19 cycles
 SCF Done:  E(UB3LYP) =  -452.712678079     A.U. after   18 cycles
 SCF Done:  E(UB3LYP) =  -452.712767508     A.U. after   19 cycles
 SCF Done:  E(UB3LYP) =  -452.712774838     A.U. after   16 cycles
 SCF Done:  E(UB3LYP) =  -452.712776978     A.U. after   17 cycles
 SCF Done:  E(UB3LYP) =  -452.712778434     A.U. after   16 cycles
 SCF Done:  E(UB3LYP) =  -452.731268515     A.U. after   16 cycles
 SCF Done:  E(UB3LYP) =  -452.731275000     A.U. after   16 cycles
 SCF Done:  E(UB3LYP) =  -452.731276242     A.U. after   15 cycles
 SCF Done:  E(UB3LYP) =  -452.731278287     A.U. after   15 cycles
 SCF Done:  E(UB3LYP) =  -452.731283569     A.U. after   16 cycles
 SCF Done:  E(UB3LYP) =  -452.731284343     A.U. after   15 cycles
 SCF Done:  E(UB3LYP) =  -452.731284929     A.U. after   14 cycles
 SCF Done:  E(UB3LYP) =  -452.731285083     A.U. after   11 cycles
 SCF Done:  E(UB3LYP) =  -452.731285204     A.U. after   11 cycles
 Optimization completed.
    -- Stationary point found.
 Normal termination of Gaussian 09 at Thu Jan 20 08:52:59 2005.

 ----------------------------------------------------------------------
 #P Geom=AllCheck Guess=TCheck SCRF=Check GenChk UB3LYP/Aug-CC-pVDZ Fre
 q
 ----------------------------------------------------------------------

 1,3,5-(CH3)3-Pyrazole-4-N2+-UB3LYP-aug-cc-pVDZ-Triplet
 ------------------------------------------------------
 Redundant internal coordinates taken from checkpoint file:
 1.chk,3,5-(CH3)3-Pyrazole-4-N2+-UB3LYP-aug-cc-pVDZ-Triplet.chk
 Charge =  1 Multiplicity = 3

                         Standard orientation:
 ---------------------------------------------------------------------
 Center     Atomic      Atomic             Coordinates (Angstroms)
 Number     Number       Type             X           Y           Z
 ---------------------------------------------------------------------
      1          7           0        2.091195   -0.754468   -0.018634
      2          7           0        2.284582   -1.924440    0.018901
      3          6           0        0.788193   -0.151811   -0.003736
      4          6           0        0.591317    1.232911   -0.000074
      5          7           0       -1.388586    0.349169    0.001640
      6          6           0       -0.476366   -0.746125   -0.004505
      7          7           0       -0.799001    1.498664    0.005747
      8          6           0       -0.920538   -2.150282   -0.004790
      9          1           0       -0.061712   -2.820549   -0.100966
     10          1           0       -1.448732   -2.385579    0.935538
     11          1           0       -1.631704   -2.339069   -0.824675
     12          6           0        1.550207    2.344789    0.000326
     13          1           0        1.389910    2.973078    0.893815
     14          1           0        2.581733    1.982914   -0.023821
     15          1           0        1.355768    3.005210   -0.861963
     16          6           0       -2.850047    0.253680    0.000729
     17          1           0       -3.180008   -0.257616   -0.912249
     18          1           0       -3.177288   -0.312372    0.881595
     19          1           0       -3.241900    1.272534    0.031452
 ---------------------------------------------------------------------

 SCF Done:  E(UB3LYP) =  -452.731285204     A.U. after    1 cycles

 The electronic state is 3-A.
 Alpha  occ. eigenvalues --  -14.65819 -14.60418 -14.58171 -14.55845 -10.47955
 Alpha  occ. eigenvalues --  -10.46101 -10.43348 -10.41648 -10.38416 -10.36626
 Alpha  occ. eigenvalues --   -1.30493  -1.23503  -1.07133  -1.04501  -0.95406
 Alpha  occ. eigenvalues --   -0.92987  -0.89127  -0.85027  -0.77943  -0.75745
 Alpha  occ. eigenvalues --   -0.71488  -0.70033  -0.65017  -0.62975  -0.62641
 Alpha  occ. eigenvalues --   -0.61599  -0.61018  -0.59670  -0.59259  -0.59153
 Alpha  occ. eigenvalues --   -0.57925  -0.57262  -0.56828  -0.51933  -0.47633
 Alpha  occ. eigenvalues --   -0.46214  -0.36915
 Alpha virt. eigenvalues --   -0.24585  -0.22481  -0.15318  -0.12192  -0.11922
 Alpha virt. eigenvalues --   -0.10912  -0.10847  -0.10129  -0.08634  -0.08362
 Alpha virt. eigenvalues --   -0.08274  -0.07404  -0.06539  -0.06292  -0.05558

  Beta  occ. eigenvalues --  -14.65519 -14.59777 -14.57781 -14.54288 -10.47459
  Beta  occ. eigenvalues --  -10.45706 -10.43134 -10.41654 -10.38413 -10.36612
  Beta  occ. eigenvalues --   -1.29334  -1.21747  -1.05921  -1.03299  -0.94916
  Beta  occ. eigenvalues --   -0.92315  -0.88039  -0.84058  -0.77018  -0.74657
  Beta  occ. eigenvalues --   -0.69459  -0.69065  -0.64186  -0.61872  -0.60840
  Beta  occ. eigenvalues --   -0.60416  -0.60318  -0.58790  -0.58410  -0.58214
  Beta  occ. eigenvalues --   -0.56884  -0.56518  -0.53672  -0.50672  -0.46006
  Beta virt. eigenvalues --   -0.37532  -0.22363  -0.21991  -0.19246  -0.15181
  Beta virt. eigenvalues --   -0.12102  -0.11079  -0.10745  -0.10474  -0.09999
  Beta virt. eigenvalues --   -0.08521  -0.08214  -0.08159  -0.07155  -0.06431

 Mulliken atomic charges:
              1
     1  N   -0.050361
     2  N   -0.472348
     3  C    1.604334
     4  C   -1.170832
     5  N   -0.100793
     6  C   -0.325343
     7  N   -0.739320
     8  C    1.215502
     9  H   -0.268600
    10  H   -0.028116
    11  H   -0.035896
    12  C    1.146791
    13  H   -0.040605
    14  H   -0.226991
    15  H   -0.052929
    16  C    1.254040
    17  H   -0.171929
    18  H   -0.166910
    19  H   -0.369694
 Sum of Mulliken atomic charges =   1.00000

 Dipole moment (field-independent basis, Debye):
    X=             -4.5269    Y=              0.9144    Z=              0.0221  Tot=              4.6184
 Quadrupole moment (field-independent basis, Debye-Ang):
   XX=            -39.2039   YY=            -43.2836   ZZ=            -54.6261
   XY=             10.8643   XZ=              0.0181   YZ=              0.0204

  Exact polarizability: 119.557   8.655 127.481   0.045  -0.325  60.486
 Approx polarizability: 168.417  13.305 203.545   0.066  -0.825  95.881

                     1                      2                      3
                     A                      A                      A
 Frequencies --    39.4212                82.7072               100.0584
 Red. masses --     1.3882                 2.3163                 1.1755
 Frc consts  --     0.0013                 0.0093                 0.0069
 IR Inten    --     0.2426                 1.6022                 2.5164

                     4                      5                      6
                     A                      A                      A
 Frequencies --   134.0393               145.5719               176.7160
 Red. masses --     1.2004                 2.9514                 2.2649
 Frc consts  --     0.0127                 0.0368                 0.0417
 IR Inten    --     2.2334                 0.0807                 2.2374

                     7                      8                      9
                     A                      A                      A
 Frequencies --   186.9685               260.1370               276.7044
 Red. masses --     5.8406                 2.7293                 2.6147
 Frc consts  --     0.1203                 0.1088                 0.1180
 IR Inten    --     2.5507                 5.7497                 0.4513

                    10                     11                     12
                     A                      A                      A
 Frequencies --   287.5876               330.7267               409.0895
 Red. masses --     6.0391                 4.3236                 5.7346
 Frc consts  --     0.2943                 0.2786                 0.5654
 IR Inten    --     4.3038                 0.4543                 5.4376

                    13                     14                     15
                     A                      A                      A
 Frequencies --   493.1239               551.4506               593.3629
 Red. masses --     4.7928                 5.4476                 4.2300
 Frc consts  --     0.6867                 0.9760                 0.8775
 IR Inten    --    35.2383                26.9314                18.9221

                    16                     17                     18
                     A                      A                      A
 Frequencies --   602.2484               631.1884               640.1671
 Red. masses --     3.6373                 3.5855                 5.0543
 Frc consts  --     0.7773                 0.8416                 1.2204
 IR Inten    --     0.4635                 0.6753                 4.7963

                    19                     20                     21
                     A                      A                      A
 Frequencies --   813.3919               955.8541               975.5135
 Red. masses --     3.4367                 4.8564                 1.9086
 Frc consts  --     1.3396                 2.6143                 1.0701
 IR Inten    --    19.8096                46.7408                15.3536

                    22                     23                     24
                     A                      A                      A
 Frequencies --   989.2470              1008.2294              1048.0602
 Red. masses --     1.7215                 1.6631                 1.7964
 Frc consts  --     0.9926                 0.9961                 1.1626
 IR Inten    --     8.0054                 2.2632                53.6687

                    25                     26                     27
                     A                      A                      A
 Frequencies --  1096.4419              1121.8342              1156.4068
 Red. masses --     1.7693                 1.3481                 5.2864
 Frc consts  --     1.2532                 0.9996                 4.1651
 IR Inten    --     6.4714                 0.0552                38.9217

                    28                     29                     30
                     A                      A                      A
 Frequencies --  1270.4056              1331.1791              1360.6417
 Red. masses --     4.0416                 1.5433                 1.5387
 Frc consts  --     3.8431                 1.6113                 1.6783
 IR Inten    --     0.2094                45.8728                 5.9361

                    31                     32                     33
                     A                      A                      A
 Frequencies --  1369.6878              1398.5982              1407.0946
 Red. masses --     1.7618                 2.2790                 1.5405
 Frc consts  --     1.9473                 2.6266                 1.7970
 IR Inten    --   235.9094                 4.3771                37.9105

                    34                     35                     36
                     A                      A                      A
 Frequencies --  1411.2532              1421.3203              1428.6509
 Red. masses --     1.0539                 1.2153                 1.0647
 Frc consts  --     1.2367                 1.4464                 1.2803
 IR Inten    --    12.2839                40.3451                 7.3897

                    37                     38                     39
                     A                      A                      A
 Frequencies --  1449.5847              1452.6783              1467.1248
 Red. masses --     1.3728                 1.0414                 1.2739
 Frc consts  --     1.6996                 1.2948                 1.6155
 IR Inten    --    22.1179                23.4614                20.3429

                    40                     41                     42
                     A                      A                      A
 Frequencies --  1517.4942              1553.9662              1835.5285
 Red. masses --     2.9964                 4.8459                13.9300
 Frc consts  --     4.0654                 6.8945                27.6519
 IR Inten    --   199.6121                 5.3910                11.9340

                    43                     44                     45
                     A                      A                      A
 Frequencies --  3003.6074              3009.7718              3050.4907
 Red. masses --     1.0414                 1.0430                 1.0942
 Frc consts  --     5.5356                 5.5668                 5.9992
 IR Inten    --   105.9377                12.0208                 4.3667

                    46                     47                     48
                     A                      A                      A
 Frequencies --  3058.0431              3066.2335              3137.5439
 Red. masses --     1.0338                 1.0934                 1.1055
 Frc consts  --     5.6960                 6.0570                 6.4120
 IR Inten    --     3.3623                 1.4172                 0.1840

                    49                     50                     51
                     A                      A                      A
 Frequencies --  3160.5145              3167.8746              3194.5109
 Red. masses --     1.0990                 1.0993                 1.1051
 Frc consts  --     6.4677                 6.4996                 6.6447
 IR Inten    --     5.0551                 7.2575                 2.9807

 - Thermochemistry -
 -------------------
 Temperature   298.150 Kelvin.  Pressure   1.00000 Atm.
 Atom     1 has atomic number  7 and mass  14.00307

 Molecular mass:   137.08272 amu.
 Principal axes and moments of inertia in atomic units:
                           1         2         3
     Eigenvalues --  1015.578621341.251482322.78826
           X            0.97881   0.20477   0.00002
           Y           -0.20477   0.97881   0.00001
           Z           -0.00001  -0.00001   1.00000
 This molecule is an asymmetric top.
 Rotational symmetry number  1.
 Warning -- assumption of classical behavior for rotation
           may cause significant error
 Rotational temperatures (Kelvin)      0.08529     0.06458     0.03729
 Rotational constants (GHZ):           1.77706     1.34557     0.77697
 Zero-point vibrational energy     386573.5 (Joules/Mol)
                                   92.39329 (Kcal/Mol)
 Warning -- explicit consideration of  16 degrees of freedom as
           vibrations may cause significant error
 Vibrational temperatures:     56.72   119.00   143.96   192.85   209.45
          (Kelvin)            254.25   269.01   374.28   398.12   413.77
                              475.84   588.59   709.49   793.41   853.72
                              866.50   908.14   921.06  1170.29  1375.26
                             1403.54  1423.30  1450.62  1507.92  1577.53
                             1614.07  1663.81  1827.83  1915.27  1957.66
                             1970.67  2012.27  2024.49  2030.48  2044.96
                             2055.51  2085.63  2090.08  2110.86  2183.33
                             2235.81  2640.91  4321.52  4330.38  4388.97
                             4399.84  4411.62  4514.22  4547.27  4557.86
                             4596.18

 Zero-point correction=                           0.147238 (Hartree/Particle)
 Thermal correction to Energy=                    0.158432
 Thermal correction to Enthalpy=                  0.159376
 Thermal correction to Gibbs Free Energy=         0.108977
 Sum of electronic and zero-point Energies=           -452.584047
 Sum of electronic and thermal Energies=              -452.572853
 Sum of electronic and thermal Enthalpies=            -452.571909
 Sum of electronic and thermal Free Energies=         -452.622309

                     E (Thermal)             CV                S
                      KCal/Mol        Cal/Mol-Kelvin    Cal/Mol-Kelvin
 Total                   99.417             38.806            106.075
 Electronic               0.000              0.000              2.183
 Translational            0.889              2.981             40.658
 Rotational               0.889              2.981             29.538
 Vibrational             97.640             32.844             33.695
 Vibration     1          0.594              1.981              5.288
 Vibration     2          0.600              1.961              3.826
 Vibration     3          0.604              1.949              3.453
 Vibration     4          0.613              1.919              2.887
 Vibration     5          0.617              1.907              2.729
 Vibration     6          0.628              1.871              2.363
 Vibration     7          0.632              1.858              2.258
 Vibration     8          0.668              1.746              1.661
 Vibration     9          0.678              1.717              1.554
 Vibration    10          0.685              1.697              1.488
 Vibration    11          0.713              1.614              1.257
 Vibration    12          0.773              1.450              0.930
 Vibration    13          0.849              1.265              0.676
 Vibration    14          0.907              1.137              0.541
 Vibration    15          0.951              1.046              0.461
 Vibration    16          0.961              1.027              0.446

 Normal termination of Gaussian 09 at Thu Jan 20 09:22:27 2005.
