 Gaussian 09, Revision B.01,
 Gaussian 09:  EM64L-G09RevB.01 12-Aug-2010

 -------------------------------------------------
 #p Temperature=298.15 opt freq UB3LYP/aug-cc-pVDZ
 -------------------------------------------------

 ---------------------------------------------------
 1,3,5-(CH3)3-Pyrazole-4+-UB3LYP-aug-cc-pVDZ-Triplet
 ---------------------------------------------------
 Symbolic Z-matrix:
 Charge =  1 Multiplicity = 3

 SCF Done:  E(UB3LYP) =  -343.165487143     A.U. after   22 cycles
 SCF Done:  E(UB3LYP) =  -343.188016970     A.U. after   22 cycles
 SCF Done:  E(UB3LYP) =  -343.193448132     A.U. after   17 cycles
 SCF Done:  E(UB3LYP) =  -343.194386992     A.U. after   16 cycles
 SCF Done:  E(UB3LYP) =  -343.194954785     A.U. after   16 cycles
 SCF Done:  E(UB3LYP) =  -343.195078415     A.U. after   19 cycles
 SCF Done:  E(UB3LYP) =  -343.195178042     A.U. after   22 cycles
 SCF Done:  E(UB3LYP) =  -343.195198244     A.U. after   14 cycles
 SCF Done:  E(UB3LYP) =  -343.195202772     A.U. after   14 cycles
 SCF Done:  E(UB3LYP) =  -343.195204066     A.U. after   13 cycles
 SCF Done:  E(UB3LYP) =  -343.196047814     A.U. after   19 cycles
 SCF Done:  E(UB3LYP) =  -343.187944834     A.U. after   20 cycles
 SCF Done:  E(UB3LYP) =  -343.196171796     A.U. after   19 cycles
 SCF Done:  E(UB3LYP) =  -343.196185831     A.U. after   15 cycles
 SCF Done:  E(UB3LYP) =  -343.196205009     A.U. after   19 cycles
 SCF Done:  E(UB3LYP) =  -343.196205727     A.U. after   14 cycles
 SCF Done:  E(UB3LYP) =  -343.196206356     A.U. after   12 cycles
 SCF Done:  E(UB3LYP) =  -343.196207033     A.U. after   13 cycles
 SCF Done:  E(UB3LYP) =  -343.196207129     A.U. after   12 cycles
 Optimization completed.
    -- Stationary point found.
 Normal termination of Gaussian 09 at Thu Jan 20 12:07:13 2005.

 ----------------------------------------------------------------------
 #P Geom=AllCheck Guess=TCheck SCRF=Check GenChk UB3LYP/Aug-CC-pVDZ Fre
 q
 ----------------------------------------------------------------------

 1,3,5-(CH3)3-Pyrazole-4+-UB3LYP-aug-cc-pVDZ-Triplet
 ---------------------------------------------------
 Redundant internal coordinates taken from checkpoint file:
 1.chk,3,5-(CH3)3-Pyrazole-4+-UB3LYP-aug-cc-pVDZ-Triplet.chk
 Charge =  1 Multiplicity = 3

                         Standard orientation:
 ---------------------------------------------------------------------
 Center     Atomic      Atomic             Coordinates (Angstroms)
 Number     Number       Type             X           Y           Z
 ---------------------------------------------------------------------
      1          6           0        0.514043   -1.224455   -0.000054
      2          6           0        1.449848   -0.121914   -0.000110
      3          7           0       -0.651168    0.606005   -0.000033
      4          6           0       -0.837733   -0.693779    0.000064
      5          7           0        0.738402    0.977042   -0.000081
      6          6           0       -2.110386   -1.452194    0.000002
      7          1           0       -2.141325   -2.108003   -0.883131
      8          1           0       -2.141757   -2.107535    0.883494
      9          1           0       -2.990798   -0.804560   -0.000308
     10          6           0        2.935108   -0.150405    0.000085
     11          1           0        3.299724   -0.689628    0.885874
     12          1           0        3.299894   -0.689904   -0.885463
     13          1           0        3.333608    0.868589   -0.000024
     14          6           0       -1.591967    1.718761    0.000042
     15          1           0       -1.403904    2.327337   -0.893370
     16          1           0       -2.615469    1.339260   -0.000149
     17          1           0       -1.404093    2.327032    0.893703
 ---------------------------------------------------------------------

 SCF Done:  E(UB3LYP) =  -343.196207129     A.U. after    1 cycles

 The electronic state is 3-A.
 Alpha  occ. eigenvalues --  -14.64242 -14.57781 -10.47619 -10.46837 -10.44275
 Alpha  occ. eigenvalues --  -10.40944 -10.38384 -10.35370  -1.26941  -1.08575
 Alpha  occ. eigenvalues --   -1.02340  -0.92891  -0.91738  -0.87646  -0.79567
 Alpha  occ. eigenvalues --   -0.75393  -0.69639  -0.69602  -0.62986  -0.61605
 Alpha  occ. eigenvalues --   -0.61315  -0.60452  -0.59361  -0.58770  -0.56187
 Alpha  occ. eigenvalues --   -0.55495  -0.54170  -0.48205  -0.47949  -0.47900
 Alpha virt. eigenvalues --   -0.21302  -0.17405  -0.14740  -0.11924  -0.11401
 Alpha virt. eigenvalues --   -0.10564  -0.10124  -0.08349  -0.07765  -0.07211
 Alpha virt. eigenvalues --   -0.07056  -0.06869  -0.06684  -0.05593  -0.05529

  Beta  occ. eigenvalues --  -14.63837 -14.57199 -10.47518 -10.44344 -10.44309
  Beta  occ. eigenvalues --  -10.40931 -10.38375 -10.35364  -1.25631  -1.07846
  Beta  occ. eigenvalues --   -1.00271  -0.92665  -0.90696  -0.85708  -0.78491
  Beta  occ. eigenvalues --   -0.74188  -0.68836  -0.67707  -0.62437  -0.61336
  Beta  occ. eigenvalues --   -0.60651  -0.59904  -0.58663  -0.58421  -0.55241
  Beta  occ. eigenvalues --   -0.55197  -0.50347  -0.46693
  Beta virt. eigenvalues --   -0.36109  -0.31931  -0.18902  -0.14586  -0.14215
  Beta virt. eigenvalues --   -0.11796  -0.11223  -0.10324  -0.09839  -0.08100
  Beta virt. eigenvalues --   -0.07422  -0.07115  -0.06663  -0.06521  -0.06435

 Mulliken atomic charges:
              1
     1  C   -0.625435
     2  C    0.087025
     3  N    0.103221
     4  C    0.019672
     5  N   -0.378075
     6  C    1.152469
     7  H   -0.050510
     8  H   -0.050346
     9  H   -0.453150
    10  C    1.151346
    11  H   -0.074459
    12  H   -0.074444
    13  H   -0.303268
    14  C    1.249569
    15  H   -0.171304
    16  H   -0.411072
    17  H   -0.171241
 Sum of Mulliken atomic charges =   1.00000

 Dipole moment (field-independent basis, Debye):
    X=             -2.0935    Y=             -1.0940    Z=              0.0003  Tot=              2.3621
 Quadrupole moment (field-independent basis, Debye-Ang):
   XX=            -22.4542   YY=            -36.7618   ZZ=            -44.6666
   XY=             -2.0932   XZ=              0.0000   YZ=              0.0001

  Exact polarizability: 103.795   0.249  90.295   0.000  -0.001  53.693
 Approx polarizability: 131.420  -3.990 155.575  -0.002  -0.001  82.408

                     1                      2                      3
                     A                      A                      A
 Frequencies --    70.1382               107.5164               126.0606
 Red. masses --     1.0285                 1.0332                 1.0728
 Frc consts  --     0.0030                 0.0070                 0.0100
 IR Inten    --     0.6811                 0.3289                 1.4986

                     4                      5                      6
                     A                      A                      A
 Frequencies --   170.0768               213.1444               253.5156
 Red. masses --     2.7214                 4.2242                 2.6009
 Frc consts  --     0.0464                 0.1131                 0.0985
 IR Inten    --     4.3477                 3.0002                 2.4233

                     7                      8                      9
                     A                      A                      A
 Frequencies --   294.0506               346.7546               449.6691
 Red. masses --     2.5547                 3.4449                 3.0760
 Frc consts  --     0.1301                 0.2440                 0.3665
 IR Inten    --     0.5050                 0.0081                10.7434

                    10                     11                     12
                     A                      A                      A
 Frequencies --   566.1102               571.5410               582.7877
 Red. masses --     4.3931                 5.4637                 5.2323
 Frc consts  --     0.8295                 1.0516                 1.0470
 IR Inten    --     2.2376                 0.1192                 7.9455

                    13                     14                     15
                     A                      A                      A
 Frequencies --   649.0110               786.2331               888.7651
 Red. masses --     4.1944                 4.6042                 3.1544
 Frc consts  --     1.0409                 1.6769                 1.4681
 IR Inten    --     0.2085                 0.5276                 5.6172

                    16                     17                     18
                     A                      A                      A
 Frequencies --   918.9015               982.7207              1020.0862
 Red. masses --     4.3615                 1.8622                 1.5260
 Frc consts  --     2.1698                 1.0596                 0.9356
 IR Inten    --    15.6463                 7.9319                 1.3298

                    19                     20                     21
                     A                      A                      A
 Frequencies --  1034.4486              1036.2247              1125.0489
 Red. masses --     2.1023                 1.5529                 1.3661
 Frc consts  --     1.3255                 0.9824                 1.0188
 IR Inten    --     7.4850                 3.5253                 0.0070

                    22                     23                     24
                     A                      A                      A
 Frequencies --  1140.5104              1182.8245              1297.8114
 Red. masses --     3.8688                 1.8870                 4.0106
 Frc consts  --     2.9650                 1.5554                 3.9800
 IR Inten    --     0.0437                10.1006                44.8329

                    25                     26                     27
                     A                      A                      A
 Frequencies --  1347.9279              1400.0478              1403.3590
 Red. masses --     2.4753                 1.3878                 1.4854
 Frc consts  --     2.6498                 1.6027                 1.7236
 IR Inten    --     5.0150                46.2626                14.8931

                    28                     29                     30
                     A                      A                      A
 Frequencies --  1418.0539              1430.2030              1438.4250
 Red. masses --     1.2300                 1.0395                 1.1054
 Frc consts  --     1.4573                 1.2528                 1.3476
 IR Inten    --     5.5379                 6.3247                27.0425

                    31                     32                     33
                     A                      A                      A
 Frequencies --  1438.6609              1440.2901              1449.9098
 Red. masses --     1.0373                 1.0402                 1.1104
 Frc consts  --     1.2650                 1.2713                 1.3754
 IR Inten    --    20.7699                12.7098                20.0469

                    34                     35                     36
                     A                      A                      A
 Frequencies --  1462.9723              1564.6812              1632.2273
 Red. masses --     1.0871                 6.9834                 6.1015
 Frc consts  --     1.3709                10.0732                 9.5774
 IR Inten    --     8.1128                35.2053                28.4810

                    37                     38                     39
                     A                      A                      A
 Frequencies --  3037.9264              3044.9628              3060.1477
 Red. masses --     1.0395                 1.0373                 1.0334
 Frc consts  --     5.6522                 5.6667                 5.7018
 IR Inten    --    22.9435                 6.4530                 7.1031

                    40                     41                     42
                     A                      A                      A
 Frequencies --  3096.1295              3109.6369              3137.9501
 Red. masses --     1.0989                 1.1000                 1.1050
 Frc consts  --     6.2062                 6.2670                 6.4108
 IR Inten    --     2.4343                 0.0979                 1.1653

                    43                     44                     45
                     A                      A                      A
 Frequencies --  3164.0737              3168.3456              3194.9719
 Red. masses --     1.1028                 1.1009                 1.1041
 Frc consts  --     6.5048                 6.5114                 6.6406
 IR Inten    --     2.4593                 3.2585                 2.2655

 - Thermochemistry -
 -------------------
 Temperature   298.150 Kelvin.  Pressure   1.00000 Atm.
 Atom     1 has atomic number  6 and mass  12.00000

 Molecular mass:   109.07657 amu.
 Principal axes and moments of inertia in atomic units:
                           1         2         3
     Eigenvalues --   472.433261087.724611526.13922
           X            1.00000  -0.00157   0.00000
           Y            0.00157   1.00000   0.00000
           Z            0.00000   0.00000   1.00000
 This molecule is an asymmetric top.
 Rotational symmetry number  1.
 Warning -- assumption of classical behavior for rotation
           may cause significant error
 Rotational temperatures (Kelvin)      0.18334     0.07963     0.05675
 Rotational constants (GHZ):           3.82010     1.65919     1.18255
 Zero-point vibrational energy     366385.4 (Joules/Mol)
                                   87.56821 (Kcal/Mol)
 Warning -- explicit consideration of  12 degrees of freedom as
           vibrations may cause significant error
 Vibrational temperatures:    100.91   154.69   181.37   244.70   306.67
          (Kelvin)            364.75   423.07   498.90   646.97   814.51
                              822.32   838.50   933.78  1131.21  1278.73
                             1322.09  1413.91  1467.67  1488.34  1490.89
                             1618.69  1640.94  1701.82  1867.26  1939.37
                             2014.35  2019.12  2040.26  2057.74  2069.57
                             2069.91  2072.25  2086.09  2104.89  2251.22
                             2348.41  4370.89  4381.02  4402.86  4454.63
                             4474.07  4514.80  4552.39  4558.54  4596.85

 Zero-point correction=                           0.139549 (Hartree/Particle)
 Thermal correction to Energy=                    0.148404
 Thermal correction to Enthalpy=                  0.149348
 Thermal correction to Gibbs Free Energy=         0.104954
 Sum of electronic and zero-point Energies=           -343.056658
 Sum of electronic and thermal Energies=              -343.047803
 Sum of electronic and thermal Enthalpies=            -343.046859
 Sum of electronic and thermal Free Energies=         -343.091253

                     E (Thermal)             CV                S
                      KCal/Mol        Cal/Mol-Kelvin    Cal/Mol-Kelvin
 Total                   93.125             31.141             93.436
 Electronic               0.000              0.000              2.183
 Translational            0.889              2.981             39.977
 Rotational               0.889              2.981             28.152
 Vibrational             91.347             25.179             23.124
 Vibration     1          0.598              1.968              4.149
 Vibration     2          0.606              1.943              3.313
 Vibration     3          0.611              1.927              3.005
 Vibration     4          0.625              1.879              2.435
 Vibration     5          0.644              1.821              2.017
 Vibration     6          0.665              1.757              1.706
 Vibration     7          0.689              1.685              1.451
 Vibration     8          0.725              1.582              1.181
 Vibration     9          0.809              1.362              0.797
 Vibration    10          0.922              1.105              0.512
 Vibration    11          0.928              1.093              0.501
 Vibration    12          0.940              1.069              0.480

 Optimization completed.
    -- Stationary point found.
 Normal termination of Gaussian 09 at Thu Jan 20 12:22:24 2005.
