 Gaussian 09, Revision B.01,
 Gaussian 09:  EM64L-G09RevB.01 12-Aug-2010

 -------------------------------------------------
 #p Temperature=298.15 opt freq UB3LYP/aug-cc-pVDZ
 -------------------------------------------------

 ---------------------------------------------
 1,3,5-Triazine-2-N2-UB3LYP-aug-cc-pVDZ-Duplet
 ---------------------------------------------
 Symbolic Z-matrix:
 Charge =  0 Multiplicity = 2

 SCF Done:  E(UB3LYP) =  -388.971182913     A.U. after   26 cycles
 SCF Done:  E(UB3LYP) =  -389.104248008     A.U. after   19 cycles
 SCF Done:  E(UB3LYP) =  -389.199970445     A.U. after   21 cycles
 SCF Done:  E(UB3LYP) =  -389.236520762     A.U. after   19 cycles
 SCF Done:  E(UB3LYP) =  -389.241817823     A.U. after   21 cycles
 SCF Done:  E(UB3LYP) =  -389.243682541     A.U. after   22 cycles
 SCF Done:  E(UB3LYP) =  -389.244729614     A.U. after   17 cycles
 SCF Done:  E(UB3LYP) =  -389.244869064     A.U. after   22 cycles
 SCF Done:  E(UB3LYP) =  -389.244938799     A.U. after   15 cycles
 SCF Done:  E(UB3LYP) =  -389.244969686     A.U. after   15 cycles
 SCF Done:  E(UB3LYP) =  -389.251781914     A.U. after   15 cycles
 SCF Done:  E(UB3LYP) =  -389.251783174     A.U. after   12 cycles
 SCF Done:  E(UB3LYP) =  -389.251783335     A.U. after   11 cycles
 SCF Done:  E(UB3LYP) =  -389.251783353     A.U. after   10 cycles
 SCF Done:  E(UB3LYP) =  -389.251783345     A.U. after   11 cycles
 SCF Done:  E(UB3LYP) =  -389.251783295     A.U. after   12 cycles
 SCF Done:  E(UB3LYP) =  -389.251783257     A.U. after   12 cycles
 SCF Done:  E(UB3LYP) =  -389.251783240     A.U. after   11 cycles
 SCF Done:  E(UB3LYP) =  -389.251783237     A.U. after   10 cycles
 Optimization completed on the basis of negligible forces.
    -- Stationary point found.
 Normal termination of Gaussian 09 at Tue Mar 20 19:32:25 2018.

 ----------------------------------------------------------------------
 #P Geom=AllCheck Guess=TCheck SCRF=Check GenChk UB3LYP/Aug-CC-pVDZ Fre
 q
 ----------------------------------------------------------------------

 1,3,5-Triazine-2-N2-UB3LYP-aug-cc-pVDZ-Duplet
 ---------------------------------------------
 Redundant internal coordinates taken from checkpoint file:
 1.chk,3,5-Triazine-2-N2-UB3LYP-aug-cc-pVDZ-Duplet.chk
 Charge =  0 Multiplicity = 2

                         Standard orientation:
 ---------------------------------------------------------------------
 Center     Atomic      Atomic             Coordinates (Angstroms)
 Number     Number       Type             X           Y           Z
 ---------------------------------------------------------------------
      1          6           0       -1.397042    1.125128    0.046492
      2          6           0        0.515862   -0.001305   -0.127767
      3          6           0       -1.399417   -1.123509    0.047627
      4          1           0       -1.935308    2.072901    0.099651
      5          7           0        1.950247   -0.003199   -0.377270
      6          7           0        2.812439    0.002211    0.425382
      7          1           0       -1.939693   -2.070070    0.101912
      8          7           0       -2.119266    0.001630    0.116365
      9          7           0       -0.066226    1.192382   -0.082606
     10          7           0       -0.068825   -1.193697   -0.081826
 ---------------------------------------------------------------------

 SCF Done:  E(UB3LYP) =  -389.251783237     A.U. after    1 cycles

 The electronic state is 2-A.
 Alpha  occ. eigenvalues --  -14.44949 -14.43385 -14.38731 -14.38730 -14.37999
 Alpha  occ. eigenvalues --  -10.34875 -10.30861 -10.30861  -1.11343  -1.06482
 Alpha  occ. eigenvalues --   -0.95016  -0.94729  -0.78416  -0.72853  -0.65320
 Alpha  occ. eigenvalues --   -0.59720  -0.54100  -0.51018  -0.48553  -0.47459
 Alpha  occ. eigenvalues --   -0.45087  -0.43778  -0.41757  -0.36729  -0.36145
 Alpha  occ. eigenvalues --   -0.31454  -0.31322  -0.23198
 Alpha virt. eigenvalues --   -0.09230  -0.08301  -0.07274  -0.01061   0.00655
 Alpha virt. eigenvalues --    0.02272   0.02741   0.04085   0.05191   0.05419
 Alpha virt. eigenvalues --    0.06547   0.07354   0.08525   0.08922   0.08972

  Beta  occ. eigenvalues --  -14.44641 -14.41839 -14.38711 -14.38710 -14.37977
  Beta  occ. eigenvalues --  -10.34496 -10.30854 -10.30854  -1.09899  -1.06036
  Beta  occ. eigenvalues --   -0.94935  -0.94459  -0.76936  -0.72788  -0.64539
  Beta  occ. eigenvalues --   -0.59601  -0.52854  -0.49847  -0.47326  -0.45842
  Beta  occ. eigenvalues --   -0.43035  -0.42494  -0.41618  -0.36652  -0.35026
  Beta  occ. eigenvalues --   -0.31261  -0.31245
  Beta virt. eigenvalues --   -0.10057  -0.09123  -0.07144  -0.06063  -0.00985
  Beta virt. eigenvalues --    0.00656   0.02382   0.02766   0.04104   0.05272
  Beta virt. eigenvalues --    0.05416   0.06724   0.07342   0.08699   0.08977

 Mulliken atomic charges:
              1
     1  C    0.663196
     2  C    0.394909
     3  C    0.663180
     4  H   -0.404919
     5  N    0.039281
     6  N   -0.455252
     7  H   -0.405276
     8  N   -0.196556
     9  N   -0.149504
    10  N   -0.149057
 Sum of Mulliken atomic charges =   0.00000

 Dipole moment (field-independent basis, Debye):
    X=             -2.2394    Y=              0.0002    Z=             -0.0871  Tot=              2.2411
 Quadrupole moment (field-independent basis, Debye-Ang):
   XX=            -51.5654   YY=            -43.6066   ZZ=            -45.0325
   XY=             -0.0006   XZ=             -0.4943   YZ=             -0.0114

  Exact polarizability:  96.098   0.018  67.475   1.112   0.013  43.669
 Approx polarizability: 144.534   0.053 112.911   2.762   0.042  70.797

                     1                      2                      3
                     A                      A                      A
 Frequencies --    10.9519               131.6649               297.7578
 Red. masses --    11.5874                12.7967                11.3869
 Frc consts  --     0.0008                 0.1307                 0.5948
 IR Inten    --     0.1082                 1.2370                 4.4064

                     4                      5                      6
                     A                      A                      A
 Frequencies --   349.3216               403.1014               500.9511
 Red. masses --     3.4651                 9.0149                12.1091
 Frc consts  --     0.2491                 0.8631                 1.7904
 IR Inten    --     0.0011                 0.0771                 3.8039

                     7                      8                      9
                     A                      A                      A
 Frequencies --   584.0773               697.5722               796.6152
 Red. masses --     3.0670                 9.4040                 8.4231
 Frc consts  --     0.6165                 2.6961                 3.1493
 IR Inten    --     5.0444                16.6762                59.8359

                    10                     11                     12
                     A                      A                      A
 Frequencies --   839.3335               983.2385              1005.1254
 Red. masses --     8.0122                 1.5899                13.9170
 Frc consts  --     3.3256                 0.9056                 8.2840
 IR Inten    --    26.4192                 2.8087                 2.8397

                    13                     14                     15
                     A                      A                      A
 Frequencies --  1042.1844              1175.9912              1206.1125
 Red. masses --     1.4825                 3.1144                12.8177
 Frc consts  --     0.9487                 2.5377                10.9859
 IR Inten    --     0.0004                 0.5955                 0.5044

                    16                     17                     18
                     A                      A                      A
 Frequencies --  1240.9164              1276.9691              1409.7870
 Red. masses --     4.5025                 3.1178                 1.4942
 Frc consts  --     4.0850                 2.9954                 1.7497
 IR Inten    --    57.1962                 0.2078                24.6068

                    19                     20                     21
                     A                      A                      A
 Frequencies --  1421.4234              1584.2179              1587.5945
 Red. masses --     1.9250                 5.3661                 9.2513
 Frc consts  --     2.2915                 7.9349                13.7383
 IR Inten    --   188.6367               282.8636               199.7480

                    22                     23                     24
                     A                      A                      A
 Frequencies --  1896.2737              3186.1983              3188.9639
 Red. masses --    13.9968                 1.0912                 1.0954
 Frc consts  --    29.6539                 6.5268                 6.5630
 IR Inten    --    15.9098                12.0861                 5.5553

 - Thermochemistry -
 -------------------
 Temperature   298.150 Kelvin.  Pressure   1.00000 Atm.
 Atom     1 has atomic number  6 and mass  12.00000

 Molecular mass:   108.03102 amu.
 Principal axes and moments of inertia in atomic units:
                           1         2         3
     Eigenvalues --   300.057291034.752411297.85295
           X            1.00000   0.00002  -0.00141
           Y           -0.00002   1.00000  -0.00006
           Z            0.00141   0.00006   1.00000
 This molecule is an asymmetric top.
 Rotational symmetry number  1.
 Rotational temperatures (Kelvin)      0.28866     0.08370     0.06674
 Rotational constants (GHZ):           6.01466     1.74413     1.39056
 Zero-point vibrational energy     160397.3 (Joules/Mol)
                                   38.33589 (Kcal/Mol)
 Warning -- explicit consideration of   7 degrees of freedom as
           vibrations may cause significant error
 Vibrational temperatures:     15.76   189.44   428.41   502.60   579.97
          (Kelvin)            720.76   840.36  1003.65  1146.15  1207.61
                             1414.66  1446.15  1499.47  1691.99  1735.32
                             1785.40  1837.27  2028.37  2045.11  2279.33
                             2284.19  2728.31  4584.22  4588.20

 Zero-point correction=                           0.061092 (Hartree/Particle)
 Thermal correction to Energy=                    0.067454
 Thermal correction to Enthalpy=                  0.068398
 Thermal correction to Gibbs Free Energy=         0.027811
 Sum of electronic and zero-point Energies=           -389.190691
 Sum of electronic and thermal Energies=              -389.184329
 Sum of electronic and thermal Enthalpies=            -389.183385
 Sum of electronic and thermal Free Energies=         -389.223972

                     E (Thermal)             CV                S
                      KCal/Mol        Cal/Mol-Kelvin    Cal/Mol-Kelvin
 Total                   42.328             21.171             85.422
 Electronic               0.000              0.000              1.377
 Translational            0.889              2.981             39.948
 Rotational               0.889              2.981             27.491
 Vibrational             40.551             15.210             16.606
 Vibration     1          0.593              1.987              7.830
 Vibration     2          0.612              1.922              2.922
 Vibration     3          0.691              1.678              1.429
 Vibration     4          0.727              1.577              1.169
 Vibration     5          0.769              1.463              0.951
 Vibration     6          0.856              1.248              0.656
 Vibration     7          0.941              1.066              0.478

 Optimization completed on the basis of negligible forces.
    -- Stationary point found.
 Normal termination of Gaussian 09 at Tue Mar 20 19:37:06 2018.
