 Gaussian 09, Revision B.01,
 Gaussian 09:  EM64L-G09RevB.01 12-Aug-2010

 -------------------------------------------------
 #p Temperature=298.15 opt freq UB3LYP/aug-cc-pVDZ
 -------------------------------------------------

 -----------------------------------------------
 1,3,5-Triazine-2-N2+-UB3LYP-aug-cc-pVDZ-Triplet
 -----------------------------------------------
 Symbolic Z-matrix:
 Charge =  1 Multiplicity = 3

 SCF Done:  E(UB3LYP) =  -388.863331899     A.U. after   22 cycles
 SCF Done:  E(UB3LYP) =  -388.886121311     A.U. after   16 cycles
 SCF Done:  E(UB3LYP) =  -388.886559751     A.U. after   14 cycles
 SCF Done:  E(UB3LYP) =  -388.886566331     A.U. after   23 cycles
 Optimization completed.
    -- Stationary point found.
 Normal termination of Gaussian 09 at Thu Jan 20 12:34:05 2005.

 ----------------------------------------------------------------------
 #P Geom=AllCheck Guess=TCheck SCRF=Check GenChk UB3LYP/Aug-CC-pVDZ Fre
 q
 ----------------------------------------------------------------------

 1,3,5-Triazine-2-N2+-UB3LYP-aug-cc-pVDZ-Triplet
 -----------------------------------------------
 Redundant internal coordinates taken from checkpoint file:
 1.chk,3,5-Triazine-2-N2+-UB3LYP-aug-cc-pVDZ-Triplet.chk
 Charge =  1 Multiplicity = 3

                         Standard orientation:
 ---------------------------------------------------------------------
 Center     Atomic      Atomic             Coordinates (Angstroms)
 Number     Number       Type             X           Y           Z
 ---------------------------------------------------------------------
      1          6           0        1.419934    1.206952    0.000096
      2          6           0       -0.492135    0.000065   -0.000125
      3          6           0        1.420074   -1.207025   -0.000105
      4          1           0        2.016392    2.119349    0.000287
      5          7           0       -1.843860   -0.000065    0.000272
      6          7           0       -2.978135   -0.000124   -0.000161
      7          1           0        2.016455   -2.119495    0.000081
      8          7           0        2.017693    0.000005   -0.000062
      9          7           0        0.107778    1.228418   -0.000103
     10          7           0        0.107940   -1.228205    0.000117
 ---------------------------------------------------------------------

 SCF Done:  E(UB3LYP) =  -388.886566331     A.U. after    1 cycles

 The electronic state is 3-A.
 Alpha  occ. eigenvalues --  -14.69770 -14.67308 -14.66110 -14.60014 -14.60007
 Alpha  occ. eigenvalues --  -10.55545 -10.52573 -10.52569  -1.35630  -1.29188
 Alpha  occ. eigenvalues --   -1.17627  -1.16838  -1.05223  -0.95049  -0.86671
 Alpha  occ. eigenvalues --   -0.82060  -0.75398  -0.74031  -0.71139  -0.69092
 Alpha  occ. eigenvalues --   -0.68407  -0.67088  -0.65111  -0.58805  -0.58276
 Alpha  occ. eigenvalues --   -0.55421  -0.51852  -0.41356
 Alpha virt. eigenvalues --   -0.28804  -0.28193  -0.24565  -0.15260  -0.13354
 Alpha virt. eigenvalues --   -0.12544  -0.11815  -0.10975  -0.10266  -0.09841
 Alpha virt. eigenvalues --   -0.07952  -0.06101  -0.05638  -0.04168  -0.04009

  Beta  occ. eigenvalues --  -14.69793 -14.66386 -14.63997 -14.59501 -14.59496
  Beta  occ. eigenvalues --  -10.55164 -10.52565 -10.52561  -1.34696  -1.27254
  Beta  occ. eigenvalues --   -1.15674  -1.14798  -1.03137  -0.94190  -0.85939
  Beta  occ. eigenvalues --   -0.80992  -0.73072  -0.71663  -0.70664  -0.66649
  Beta  occ. eigenvalues --   -0.66619  -0.66544  -0.59823  -0.56670  -0.54995
  Beta  occ. eigenvalues --   -0.49928
  Beta virt. eigenvalues --   -0.41767  -0.32485  -0.28281  -0.27419  -0.20961
  Beta virt. eigenvalues --   -0.15155  -0.12330  -0.11796  -0.11356  -0.10602
  Beta virt. eigenvalues --   -0.09451  -0.09022  -0.07863  -0.05905  -0.05608

 Mulliken atomic charges:
              1
     1  C    0.768066
     2  C    0.335941
     3  C    0.767994
     4  H   -0.309196
     5  N    0.464739
     6  N   -0.427658
     7  H   -0.309092
     8  N   -0.054943
     9  N   -0.117974
    10  N   -0.117878
 Sum of Mulliken atomic charges =   1.00000

 Dipole moment (field-independent basis, Debye):
    X=              3.2703    Y=             -0.0018    Z=              0.0003  Tot=              3.2703
 Quadrupole moment (field-independent basis, Debye-Ang):
   XX=            -22.8603   YY=            -34.4897   ZZ=            -41.5595
   XY=             -0.0004   XZ=              0.0005   YZ=              0.0011

  Exact polarizability: 116.291   0.020  69.458  -0.001  -0.001  34.650
 Approx polarizability: 234.648   0.062 118.090  -0.002  -0.002  52.427

                     1                      2                      3
                     A                      A                      A
 Frequencies --   140.0983               166.9734               283.4766
 Red. masses --    13.4187                10.0390                 9.2977
 Frc consts  --     0.1552                 0.1649                 0.4402
 IR Inten    --     2.0912                 2.3901                 0.0148

                     4                      5                      6
                     A                      A                      A
 Frequencies --   306.6012               317.3583               422.3023
 Red. masses --     4.5340                 9.3749                 3.8889
 Frc consts  --     0.2511                 0.5563                 0.4086
 IR Inten    --    17.1238               222.6534                 0.0000

                     7                      8                      9
                     A                      A                      A
 Frequencies --   503.0099               571.9726               646.6046
 Red. masses --    13.6350                10.7273                 9.8067
 Frc consts  --     2.0326                 2.0677                 2.4158
 IR Inten    --     6.8734                 7.7142                27.9572

                    10                     11                     12
                     A                      A                      A
 Frequencies --   790.9027               930.2753               954.1320
 Red. masses --     6.8793                 1.3394                 1.3949
 Frc consts  --     2.5354                 0.6829                 0.7482
 IR Inten    --     5.6653                13.2165                 0.0018

                    13                     14                     15
                     A                      A                      A
 Frequencies --   955.4339              1035.9983              1204.5084
 Red. masses --    11.8651                 3.5621                12.2957
 Frc consts  --     6.3815                 2.2525                10.5105
 IR Inten    --    19.3542                22.4362                25.6272

                    16                     17                     18
                     A                      A                      A
 Frequencies --  1250.5324              1310.5082              1365.3591
 Red. masses --     2.1939                 5.9271                 1.5418
 Frc consts  --     2.0214                 5.9975                 1.6934
 IR Inten    --     5.7169                 0.0061                35.3797

                    19                     20                     21
                     A                      A                      A
 Frequencies --  1367.6425              1467.0601              1567.7834
 Red. masses --     1.9111                 9.5944                 8.5130
 Frc consts  --     2.1061                12.1665                12.3284
 IR Inten    --     0.4858                85.1080               299.1970

                    22                     23                     24
                     A                      A                      A
 Frequencies --  2150.0219              3209.3240              3220.2954
 Red. masses --    13.9642                 1.0899                 1.1002
 Frc consts  --    38.0322                 6.6142                 6.7224
 IR Inten    --   255.2335                10.9065                23.8396

 - Thermochemistry -
 -------------------
 Temperature   298.150 Kelvin.  Pressure   1.00000 Atm.
 Atom     1 has atomic number  6 and mass  12.00000

 Molecular mass:   108.03102 amu.
 Principal axes and moments of inertia in atomic units:
                           1         2         3
     Eigenvalues --   308.083501030.201201338.28469
           X            1.00000   0.00000   0.00000
           Y            0.00000   1.00000   0.00001
           Z            0.00000  -0.00001   1.00000
 This molecule is an asymmetric top.
 Rotational symmetry number  1.
 Rotational temperatures (Kelvin)      0.28114     0.08407     0.06472
 Rotational constants (GHZ):           5.85796     1.75183     1.34855
 Zero-point vibrational energy     156341.0 (Joules/Mol)
                                   37.36640 (Kcal/Mol)
 Warning -- explicit consideration of   8 degrees of freedom as
           vibrations may cause significant error
 Vibrational temperatures:    201.57   240.24   407.86   441.13   456.61
          (Kelvin)            607.60   723.72   822.94   930.32  1137.93
                             1338.46  1372.78  1374.65  1490.57  1733.02
                             1799.23  1885.53  1964.44  1967.73  2110.77
                             2255.69  3093.40  4617.50  4633.28

 Zero-point correction=                           0.059547 (Hartree/Particle)
 Thermal correction to Energy=                    0.066046
 Thermal correction to Enthalpy=                  0.066990
 Thermal correction to Gibbs Free Energy=         0.027847
 Sum of electronic and zero-point Energies=           -388.827019
 Sum of electronic and thermal Energies=              -388.820521
 Sum of electronic and thermal Enthalpies=            -388.819577
 Sum of electronic and thermal Free Energies=         -388.858719

                     E (Thermal)             CV                S
                      KCal/Mol        Cal/Mol-Kelvin    Cal/Mol-Kelvin
 Total                   41.444             22.686             82.383
 Electronic               0.000              0.000              2.183
 Translational            0.889              2.981             39.948
 Rotational               0.889              2.981             27.543
 Vibrational             39.667             16.724             12.709
 Vibration     1          0.615              1.913              2.803
 Vibration     2          0.624              1.883              2.469
 Vibration     3          0.682              1.704              1.513
 Vibration     4          0.697              1.661              1.381
 Vibration     5          0.704              1.640              1.324
 Vibration     6          0.785              1.422              0.884
 Vibration     7          0.858              1.243              0.651
 Vibration     8          0.928              1.092              0.500

 Optimization completed.
    -- Stationary point found.
 Normal termination of Gaussian 09 at Thu Jan 20 12:38:33 2005.
