 Gaussian 09, Revision B.01,
 Gaussian 09:  EM64L-G09RevB.01 12-Aug-2010

 -------------------------------------------------
 #p Temperature=298.15 opt freq UB3LYP/aug-cc-pVDZ
 -------------------------------------------------

 ------------------------------------------
 1,3,5-Triazine-2-UB3LYP-aug-cc-pVDZ-Duplet
 ------------------------------------------
 Symbolic Z-matrix:
 Charge =  0 Multiplicity = 2

 SCF Done:  E(UB3LYP) =  -279.682981795     A.U. after   16 cycles
 SCF Done:  E(UB3LYP) =  -279.718573061     A.U. after   17 cycles
 SCF Done:  E(UB3LYP) =  -279.721744542     A.U. after   14 cycles
 SCF Done:  E(UB3LYP) =  -279.721826241     A.U. after   19 cycles
 SCF Done:  E(UB3LYP) =  -279.721828850     A.U. after   10 cycles
 Optimization completed.
    -- Stationary point found.
 Normal termination of Gaussian 09 at Tue Mar  6 03:40:01 2018.

 ----------------------------------------------------------------------
 #P Geom=AllCheck Guess=TCheck SCRF=Check GenChk UB3LYP/Aug-CC-pVDZ Fre
 q
 ----------------------------------------------------------------------

 1,3,5-Triazine-2-UB3LYP-aug-cc-pVDZ-Duplet
 ------------------------------------------
 Redundant internal coordinates taken from checkpoint file:
 1.chk,3,5-Triazine-2-UB3LYP-aug-cc-pVDZ-Duplet.chk
 Charge =  0 Multiplicity = 2

                         Standard orientation:
 ---------------------------------------------------------------------
 Center     Atomic      Atomic             Coordinates (Angstroms)
 Number     Number       Type             X           Y           Z
 ---------------------------------------------------------------------
      1          6           0        1.128937    0.590930    0.000164
      2          6           0        0.000006   -1.315918    0.000003
      3          6           0       -1.128947    0.590915   -0.000173
      4          1           0        2.075826    1.133662   -0.000198
      5          1           0       -2.075869    1.133632    0.000213
      6          7           0       -0.000011    1.303017    0.000004
      7          7           0        1.184999   -0.755987   -0.000087
      8          7           0       -1.184979   -0.756009    0.000086
 ---------------------------------------------------------------------

 SCF Done:  E(UB3LYP) =  -279.721828850     A.U. after    1 cycles

 The electronic state is 2-A.
 Alpha  occ. eigenvalues --  -14.38419 -14.38417 -14.37812 -10.30737 -10.30737
 Alpha  occ. eigenvalues --  -10.29908  -1.06279  -0.94164  -0.93702  -0.72271
 Alpha  occ. eigenvalues --   -0.69993  -0.58368  -0.55564  -0.48317  -0.46529
 Alpha  occ. eigenvalues --   -0.42341  -0.36038  -0.35897  -0.34558  -0.31222
 Alpha  occ. eigenvalues --   -0.24967
 Alpha virt. eigenvalues --   -0.08748  -0.07246  -0.00913   0.00810   0.02950
 Alpha virt. eigenvalues --    0.02959   0.04556   0.05633   0.06242   0.07738
 Alpha virt. eigenvalues --    0.08487   0.09270   0.09465   0.09534   0.09738

  Beta  occ. eigenvalues --  -14.38143 -14.38141 -14.37807 -10.30604 -10.30604
  Beta  occ. eigenvalues --  -10.28439  -1.05781  -0.93606  -0.93162  -0.71770
  Beta  occ. eigenvalues --   -0.68504  -0.57542  -0.54316  -0.47954  -0.46129
  Beta  occ. eigenvalues --   -0.41205  -0.35781  -0.35460  -0.32057  -0.30219
  Beta virt. eigenvalues --   -0.10768  -0.08556  -0.05969  -0.00880   0.00828
  Beta virt. eigenvalues --    0.03030   0.03379   0.04621   0.05652   0.06632
  Beta virt. eigenvalues --    0.07744   0.08603   0.09439   0.09613   0.09782

 Mulliken atomic charges:
              1
     1  C    0.580540
     2  C   -0.124771
     3  C    0.580477
     4  H   -0.327397
     5  H   -0.327350
     6  N   -0.152139
     7  N   -0.114693
     8  N   -0.114667
 Sum of Mulliken atomic charges =   0.00000

 Dipole moment (field-independent basis, Debye):
    X=             -0.0001    Y=              1.5036    Z=              0.0000  Tot=              1.5036
 Quadrupole moment (field-independent basis, Debye-Ang):
   XX=            -32.9530   YY=            -38.5055   ZZ=            -33.5094
   XY=              0.0001   XZ=              0.0000   YZ=              0.0000

  Exact polarizability:  62.277   0.000  60.451   0.001   0.000  33.007
 Approx polarizability: 105.992   0.000 104.251   0.003   0.000  49.791

                     1                      2                      3
                     A                      A                      A
 Frequencies --   328.2187               387.6455               641.2188
 Red. masses --     3.3568                 5.6673                 9.6626
 Frc consts  --     0.2131                 0.5018                 2.3408
 IR Inten    --     0.0000                 4.0886                31.8271

                     4                      5                      6
                     A                      A                      A
 Frequencies --   706.4925               747.6208               963.9549
 Red. masses --    10.6410                 3.5138                 1.5888
 Frc consts  --     3.1293                 1.1571                 0.8698
 IR Inten    --     5.9689                18.5727                 0.5290

                     7                      8                      9
                     A                      A                      A
 Frequencies --   980.9881              1026.5488              1136.9527
 Red. masses --    13.5817                 1.4897                 7.1962
 Frc consts  --     7.7007                 0.9249                 5.4807
 IR Inten    --     3.9941                 0.0000                11.9237

                    10                     11                     12
                     A                      A                      A
 Frequencies --  1143.1035              1189.2385              1270.0293
 Red. masses --    10.3991                 2.2013                 3.1308
 Frc consts  --     8.0060                 1.8343                 2.9753
 IR Inten    --     0.4159                11.7327                 0.0326

                    13                     14                     15
                     A                      A                      A
 Frequencies --  1397.8054              1413.2392              1542.5529
 Red. masses --     1.4870                 2.1597                 4.7214
 Frc consts  --     1.7118                 2.5415                 6.6191
 IR Inten    --    15.5652                53.8280               146.6744

                    16                     17                     18
                     A                      A                      A
 Frequencies --  1572.3317              3185.0002              3187.2035
 Red. masses --    10.5926                 1.0909                 1.0952
 Frc consts  --    15.4291                 6.5204                 6.5548
 IR Inten    --   267.1850                13.0397                 5.0685

 - Thermochemistry -
 -------------------
 Temperature   298.150 Kelvin.  Pressure   1.00000 Atm.
 Atom     1 has atomic number  6 and mass  12.00000

 Molecular mass:    80.02487 amu.
 Principal axes and moments of inertia in atomic units:
                           1         2         3
     Eigenvalues --   255.22042 280.68630 535.90671
           X            1.00000   0.00000  -0.00001
           Y            0.00000   1.00000   0.00000
           Z            0.00001   0.00000   1.00000
 This molecule is an asymmetric top.
 Rotational symmetry number  1.
 Rotational temperatures (Kelvin)      0.33937     0.30858     0.16162
 Rotational constants (GHZ):           7.07130     6.42974     3.36764
 Zero-point vibrational energy     136494.8 (Joules/Mol)
                                   32.62303 (Kcal/Mol)
 Warning -- explicit consideration of   2 degrees of freedom as
           vibrations may cause significant error
 Vibrational temperatures:    472.23   557.73   922.57  1016.48  1075.66
          (Kelvin)           1386.91  1411.42  1476.97  1635.82  1644.67
                             1711.05  1827.29  2011.13  2033.33  2219.39
                             2262.23  4582.50  4585.67

 Zero-point correction=                           0.051988 (Hartree/Particle)
 Thermal correction to Energy=                    0.056082
 Thermal correction to Enthalpy=                  0.057026
 Thermal correction to Gibbs Free Energy=         0.024087
 Sum of electronic and zero-point Energies=           -279.669841
 Sum of electronic and thermal Energies=              -279.665747
 Sum of electronic and thermal Enthalpies=            -279.664803
 Sum of electronic and thermal Free Energies=         -279.697742

                     E (Thermal)             CV                S
                      KCal/Mol        Cal/Mol-Kelvin    Cal/Mol-Kelvin
 Total                   35.192             13.948             69.327
 Electronic               0.000              0.000              1.377
 Translational            0.889              2.981             39.054
 Rotational               0.889              2.981             25.155
 Vibrational             33.415              7.986              3.742
 Vibration     1          0.711              1.619              1.269
 Vibration     2          0.756              1.497              1.009

 Optimization completed.
    -- Stationary point found.
 Normal termination of Gaussian 09 at Tue Mar  6 03:41:34 2018.
