 Gaussian 09, Revision B.01,
 Gaussian 09:  EM64L-G09RevB.01 12-Aug-2010

 -------------------------------------------------
 #p Temperature=298.15 opt freq UB3LYP/aug-cc-pVDZ
 -------------------------------------------------

 -----------------------------------------------
 1,3,5-Triazine-2-N2+-UB3LYP-aug-cc-pVDZ-Singlet
 -----------------------------------------------
 Symbolic Z-matrix:
 Charge =  1 Multiplicity = 1

 SCF Done:  E(UB3LYP) =  -388.923403191     A.U. after   16 cycles
 SCF Done:  E(UB3LYP) =  -388.958929015     A.U. after   13 cycles
 SCF Done:  E(UB3LYP) =  -388.964786429     A.U. after   12 cycles
 SCF Done:  E(UB3LYP) =  -388.965667190     A.U. after   15 cycles
 SCF Done:  E(UB3LYP) =  -388.966247547     A.U. after   12 cycles
 SCF Done:  E(UB3LYP) =  -388.966286549     A.U. after   17 cycles
 SCF Done:  E(UB3LYP) =  -388.966273441     A.U. after   14 cycles
 SCF Done:  E(UB3LYP) =  -388.966290888     A.U. after   17 cycles
 SCF Done:  E(UB3LYP) =  -388.966290852     A.U. after   17 cycles
 Optimization completed.
    -- Stationary point found.
 Normal termination of Gaussian 09 at Tue Mar  6 00:26:34 2018.

 ----------------------------------------------------------------------
 #P Geom=AllCheck Guess=TCheck SCRF=Check GenChk UB3LYP/Aug-CC-pVDZ Fre
 q
 ----------------------------------------------------------------------

 1,3,5-Triazine-2-N2+-UB3LYP-aug-cc-pVDZ-Singlet
 -----------------------------------------------
 Redundant internal coordinates taken from checkpoint file:
 1.chk,3,5-Triazine-2-N2+-UB3LYP-aug-cc-pVDZ-Singlet.chk
 Charge =  1 Multiplicity = 1

                         Standard orientation:
 ---------------------------------------------------------------------
 Center     Atomic      Atomic             Coordinates (Angstroms)
 Number     Number       Type             X           Y           Z
 ---------------------------------------------------------------------
      1          6           0        1.438527    1.138421    0.000047
      2          6           0       -0.421033   -0.000001   -0.000880
      3          6           0        1.438528   -1.138421    0.000144
      4          1           0        1.977631    2.085905    0.000924
      5          7           0       -1.935073   -0.000002   -0.000071
      6          7           0       -3.038196    0.000001    0.000733
      7          1           0        1.977633   -2.085900    0.000792
      8          7           0        2.136120    0.000001    0.000526
      9          7           0        0.083473    1.198657   -0.000399
     10          7           0        0.083477   -1.198658   -0.000444
 ---------------------------------------------------------------------

 SCF Done:  E(UB3LYP) =  -388.966290853     A.U. after    1 cycles

 The electronic state is 1-A.
 Alpha  occ. eigenvalues --  -14.76104 -14.74756 -14.59490 -14.59489 -14.56809
 Alpha  occ. eigenvalues --  -10.58143 -10.49861 -10.49861  -1.42792  -1.27923
 Alpha  occ. eigenvalues --   -1.15934  -1.15023  -1.02321  -0.92543  -0.85245
 Alpha  occ. eigenvalues --   -0.79721  -0.77064  -0.74688  -0.74546  -0.69922
 Alpha  occ. eigenvalues --   -0.68543  -0.64926  -0.61486  -0.56352  -0.55718
 Alpha  occ. eigenvalues --   -0.51892  -0.49305
 Alpha virt. eigenvalues --   -0.34207  -0.31480  -0.28000  -0.23928  -0.18830
 Alpha virt. eigenvalues --   -0.14843  -0.11459  -0.11426  -0.10772  -0.09926
 Alpha virt. eigenvalues --   -0.08615  -0.08293  -0.07189  -0.06181  -0.04862

  Beta  occ. eigenvalues --  -14.76104 -14.74756 -14.59490 -14.59489 -14.56809
  Beta  occ. eigenvalues --  -10.58143 -10.49861 -10.49861  -1.42792  -1.27923
  Beta  occ. eigenvalues --   -1.15934  -1.15023  -1.02321  -0.92543  -0.85245
  Beta  occ. eigenvalues --   -0.79721  -0.77064  -0.74688  -0.74546  -0.69922
  Beta  occ. eigenvalues --   -0.68543  -0.64926  -0.61486  -0.56352  -0.55718
  Beta  occ. eigenvalues --   -0.51892  -0.49305
  Beta virt. eigenvalues --   -0.34207  -0.31480  -0.28000  -0.23928  -0.18830
  Beta virt. eigenvalues --   -0.14843  -0.11459  -0.11426  -0.10772  -0.09926
  Beta virt. eigenvalues --   -0.08615  -0.08293  -0.07189  -0.06181  -0.04862

 Mulliken atomic charges:
              1
     1  C    0.786178
     2  C    0.224259
     3  C    0.786190
     4  H   -0.342308
     5  N    0.559710
     6  N   -0.378987
     7  H   -0.342318
     8  N   -0.150325
     9  N   -0.071200
    10  N   -0.071199
 Sum of Mulliken atomic charges =   1.00000

 Dipole moment (field-independent basis, Debye):
    X=             -2.1034    Y=              0.0000    Z=              0.0001  Tot=              2.1034
 Quadrupole moment (field-independent basis, Debye-Ang):
   XX=            -23.8621   YY=            -36.0838   ZZ=            -40.5722
   XY=              0.0000   XZ=             -0.0002   YZ=              0.0000

  Exact polarizability:  87.902   0.000  61.573   0.003   0.000  34.278
 Approx polarizability: 148.262   0.000 111.074   0.007  -0.001  53.484

                     1                      2                      3
                     A                      A                      A
 Frequencies --   129.5649               138.3753               321.1166
 Red. masses --    12.3015                10.2280                10.9318
 Frc consts  --     0.1217                 0.1154                 0.6641
 IR Inten    --     0.0127                 0.0398                 0.0342

                     4                      5                      6
                     A                      A                      A
 Frequencies --   352.3847               355.1553               517.1903
 Red. masses --    13.1432                 3.4568                11.3514
 Frc consts  --     0.9616                 0.2569                 1.7890
 IR Inten    --     1.7283                 0.0000                 1.7033

                     7                      8                      9
                     A                      A                      A
 Frequencies --   555.5894               681.0679               733.0702
 Red. masses --     3.5738                 9.4165                10.4467
 Frc consts  --     0.6500                 2.5735                 3.3077
 IR Inten    --     5.8556                23.5805                74.6290

                    10                     11                     12
                     A                      A                      A
 Frequencies --   782.9053               986.5159              1000.3821
 Red. masses --     5.6764                 1.5999                13.9123
 Frc consts  --     2.0499                 0.9174                 8.2032
 IR Inten    --    29.7124                 2.5937                 8.5996

                    13                     14                     15
                     A                      A                      A
 Frequencies --  1045.7874              1081.6996              1155.0555
 Red. masses --     1.4687                 6.3324                10.1339
 Frc consts  --     0.9464                 4.3655                 7.9658
 IR Inten    --     0.0000                13.0514                 5.2559

                    16                     17                     18
                     A                      A                      A
 Frequencies --  1169.3834              1320.1179              1385.9458
 Red. masses --     2.7413                 2.3240                 2.2925
 Frc consts  --     2.2086                 2.3863                 2.5945
 IR Inten    --     0.8437                 1.7024               147.1054

                    19                     20                     21
                     A                      A                      A
 Frequencies --  1405.4191              1504.3307              1659.7936
 Red. masses --     1.7973                 3.1717                10.6660
 Frc consts  --     2.0916                 4.2289                17.3125
 IR Inten    --    37.9436                59.9029               194.3834

                    22                     23                     24
                     A                      A                      A
 Frequencies --  2435.7339              3219.3033              3221.8998
 Red. masses --    13.9995                 1.0950                 1.0993
 Frc consts  --    48.9352                 6.6862                 6.7236
 IR Inten    --     3.8684                 6.3300                 2.9471

 - Thermochemistry -
 -------------------
 Temperature   298.150 Kelvin.  Pressure   1.00000 Atm.
 Atom     1 has atomic number  6 and mass  12.00000

 Molecular mass:   108.03102 amu.
 Principal axes and moments of inertia in atomic units:
                           1         2         3
     Eigenvalues --   286.088051090.300601376.38846
           X            1.00000   0.00000   0.00001
           Y            0.00000   1.00000   0.00000
           Z           -0.00001   0.00000   1.00000
 This molecule is an asymmetric top.
 Rotational symmetry number  1.
 Rotational temperatures (Kelvin)      0.30275     0.07944     0.06293
 Rotational constants (GHZ):           6.30834     1.65527     1.31122
 Zero-point vibrational energy     162439.6 (Joules/Mol)
                                   38.82401 (Kcal/Mol)
 Warning -- explicit consideration of   7 degrees of freedom as
           vibrations may cause significant error
 Vibrational temperatures:    186.41   199.09   462.01   507.00   510.99
          (Kelvin)            744.12   799.37   979.90  1054.72  1126.42
                             1419.37  1439.32  1504.65  1556.32  1661.87
                             1682.48  1899.35  1994.06  2022.08  2164.39
                             2388.07  3504.47  4631.85  4635.59

 Zero-point correction=                           0.061870 (Hartree/Particle)
 Thermal correction to Energy=                    0.068062
 Thermal correction to Enthalpy=                  0.069006
 Thermal correction to Gibbs Free Energy=         0.031296
 Sum of electronic and zero-point Energies=           -388.904421
 Sum of electronic and thermal Energies=              -388.898229
 Sum of electronic and thermal Enthalpies=            -388.897285
 Sum of electronic and thermal Free Energies=         -388.934995

                     E (Thermal)             CV                S
                      KCal/Mol        Cal/Mol-Kelvin    Cal/Mol-Kelvin
 Total                   42.709             21.549             79.366
 Electronic               0.000              0.000              0.000
 Translational            0.889              2.981             39.948
 Rotational               0.889              2.981             27.553
 Vibrational             40.932             15.587             11.865
 Vibration     1          0.612              1.924              2.952
 Vibration     2          0.614              1.915              2.826
 Vibration     3          0.707              1.633              1.304
 Vibration     4          0.729              1.570              1.156
 Vibration     5          0.731              1.565              1.143
 Vibration     6          0.872              1.212              0.617
 Vibration     7          0.911              1.127              0.533

 Optimization completed.
    -- Stationary point found.
 Normal termination of Gaussian 09 at Tue Mar  6 00:30:52 2018.
