 Gaussian 09, Revision B.01,
 Gaussian 09:  EM64L-G09RevB.01 12-Aug-2010

 -------------------------------------------------
 #p Temperature=298.15 opt freq UB3LYP/aug-cc-pVDZ
 -------------------------------------------------

 --------------------------------------
 1-CH3-C2H5+-UB3LYP-aug-cc-pVDZ-Singlet
 --------------------------------------
 Symbolic Z-matrix:
 Charge =  1 Multiplicity = 1

 SCF Done:  E(UB3LYP) =  -118.099583732     A.U. after   11 cycles
 SCF Done:  E(UB3LYP) =  -118.166662664     A.U. after   11 cycles
 SCF Done:  E(UB3LYP) =  -118.209091290     A.U. after   11 cycles
 SCF Done:  E(UB3LYP) =  -118.217780180     A.U. after   11 cycles
 SCF Done:  E(UB3LYP) =  -118.219050773     A.U. after   10 cycles
 SCF Done:  E(UB3LYP) =  -118.218901013     A.U. after   10 cycles
 SCF Done:  E(UB3LYP) =  -118.219205489     A.U. after   10 cycles
 SCF Done:  E(UB3LYP) =  -118.219264763     A.U. after    9 cycles
 SCF Done:  E(UB3LYP) =  -118.219274010     A.U. after    8 cycles
 SCF Done:  E(UB3LYP) =  -118.219282478     A.U. after    8 cycles
 SCF Done:  E(UB3LYP) =  -118.219191490     A.U. after   10 cycles
 SCF Done:  E(UB3LYP) =  -118.219421709     A.U. after   10 cycles
 SCF Done:  E(UB3LYP) =  -118.219435480     A.U. after    9 cycles
 SCF Done:  E(UB3LYP) =  -118.219441033     A.U. after    8 cycles
 SCF Done:  E(UB3LYP) =  -118.219447314     A.U. after    8 cycles
 SCF Done:  E(UB3LYP) =  -118.219452129     A.U. after    8 cycles
 SCF Done:  E(UB3LYP) =  -118.219459384     A.U. after    8 cycles
 SCF Done:  E(UB3LYP) =  -118.219460791     A.U. after    7 cycles
 SCF Done:  E(UB3LYP) =  -118.219460915     A.U. after   12 cycles
 Optimization completed.
    -- Stationary point found.
 Normal termination of Gaussian 09 at Thu Mar 15 08:40:24 2018.

 ----------------------------------------------------------------------
 #P Geom=AllCheck Guess=TCheck SCRF=Check GenChk UB3LYP/Aug-CC-pVDZ Fre
 q
 ----------------------------------------------------------------------

 1-CH3-C2H5+-UB3LYP-aug-cc-pVDZ-Singlet
 --------------------------------------
 Redundant internal coordinates taken from checkpoint file:
 1-CH3-C2H5+-UB3LYP-aug-cc-pVDZ-Singlet.chk
 Charge =  1 Multiplicity = 1

                         Standard orientation:
 ---------------------------------------------------------------------
 Center     Atomic      Atomic             Coordinates (Angstroms)
 Number     Number       Type             X           Y           Z
 ---------------------------------------------------------------------
      1          6           0        0.000001    0.453910    0.000051
      2          1           0       -0.000050    1.552952    0.000026
      3          6           0       -1.284165   -0.198063    0.022347
      4          1           0       -2.029252    0.345062    0.625180
      5          1           0       -1.643979   -0.016390   -1.026935
      6          1           0       -1.261426   -1.278526    0.196059
      7          6           0        1.284149   -0.197997   -0.022368
      8          1           0        2.029362    0.345274   -0.624972
      9          1           0        1.644042   -0.017101    1.027005
     10          1           0        1.261390   -1.278368   -0.196547
 ---------------------------------------------------------------------

 SCF Done:  E(UB3LYP) =  -118.219460915     A.U. after    1 cycles

 The electronic state is 1-A.
 Alpha  occ. eigenvalues --  -10.53229 -10.42673 -10.42670  -1.06919  -0.95630
 Alpha  occ. eigenvalues --   -0.81918  -0.72143  -0.67716  -0.67060  -0.62396
 Alpha  occ. eigenvalues --   -0.61312  -0.60511
 Alpha virt. eigenvalues --   -0.34796  -0.17487  -0.14115  -0.13621  -0.12376
 Alpha virt. eigenvalues --   -0.11146  -0.10195  -0.09541  -0.08404  -0.07950
 Alpha virt. eigenvalues --   -0.06354  -0.05089  -0.04114  -0.03779  -0.02328

  Beta  occ. eigenvalues --  -10.53229 -10.42673 -10.42670  -1.06919  -0.95630
  Beta  occ. eigenvalues --   -0.81918  -0.72143  -0.67716  -0.67060  -0.62396
  Beta  occ. eigenvalues --   -0.61312  -0.60511
  Beta virt. eigenvalues --   -0.34796  -0.17487  -0.14115  -0.13621  -0.12376
  Beta virt. eigenvalues --   -0.11146  -0.10195  -0.09541  -0.08404  -0.07950
  Beta virt. eigenvalues --   -0.06354  -0.05089  -0.04114  -0.03779  -0.02328

 Mulliken atomic charges:
              1
     1  C    0.596447
     2  H   -0.507993
     3  C    0.726448
     4  H   -0.093746
     5  H    0.054702
     6  H   -0.231600
     7  C    0.726405
     8  H   -0.093717
     9  H    0.054642
    10  H   -0.231589
 Sum of Mulliken atomic charges =   1.00000

 Dipole moment (field-independent basis, Debye):
    X=             -0.0001    Y=              0.7720    Z=              0.0001  Tot=              0.7720
 Quadrupole moment (field-independent basis, Debye-Ang):
   XX=             -9.2756   YY=            -15.1168   ZZ=            -16.6972
   XY=             -0.0007   XZ=              0.7479   YZ=             -0.0004

  Exact polarizability:  46.491   0.000  31.689   1.513   0.000  28.127
 Approx polarizability:  63.260  -0.002  43.803   4.145  -0.002  41.796

                     1                      2                      3
                     A                      A                      A
 Frequencies --   155.5791               155.6082               420.4211
 Red. masses --     1.1639                 1.0895                 1.9856
 Frc consts  --     0.0166                 0.0155                 0.2068
 IR Inten    --     8.1232                 7.5833                 0.1664

                     4                      5                      6
                     A                      A                      A
 Frequencies --   607.5161               688.4282               914.0360
 Red. masses --     1.1706                 1.1121                 2.0213
 Frc consts  --     0.2545                 0.3105                 0.9950
 IR Inten    --     0.0793                65.5519                 0.6742

                     7                      8                      9
                     A                      A                      A
 Frequencies --   960.5966              1082.6434              1186.4051
 Red. masses --     1.1439                 1.9645                 1.5561
 Frc consts  --     0.6219                 1.3567                 1.2905
 IR Inten    --     7.7921                67.0808                 8.1347

                    10                     11                     12
                     A                      A                      A
 Frequencies --  1239.1304              1260.9640              1286.5809
 Red. masses --     1.3775                 1.2197                 1.3524
 Frc consts  --     1.2462                 1.1426                 1.3190
 IR Inten    --     4.7548               215.4602                10.9332

                    13                     14                     15
                     A                      A                      A
 Frequencies --  1339.8269              1340.4699              1423.1936
 Red. masses --     1.1468                 1.0873                 1.1482
 Frc consts  --     1.2130                 1.1511                 1.3702
 IR Inten    --     8.2153                11.3912                28.9458

                    16                     17                     18
                     A                      A                      A
 Frequencies --  1462.6243              1534.9417              2861.7147
 Red. masses --     1.1751                 1.9128                 1.0625
 Frc consts  --     1.4811                 2.6553                 5.1264
 IR Inten    --    13.9864                55.8558               220.2590

                    19                     20                     21
                     A                      A                      A
 Frequencies --  2874.8036              3052.7477              3054.5516
 Red. masses --     1.0663                 1.0634                 1.0610
 Frc consts  --     5.1920                 5.8390                 5.8328
 IR Inten    --     6.5865                48.2853                 0.1565

                    22                     23                     24
                     A                      A                      A
 Frequencies --  3139.0055              3170.6848              3174.6712
 Red. masses --     1.0951                 1.1071                 1.1034
 Frc consts  --     6.3574                 6.5574                 6.5521
 IR Inten    --     0.3929                 7.9512                 9.2652

 - Thermochemistry -
 -------------------
 Temperature   298.150 Kelvin.  Pressure   1.00000 Atm.
 Atom     1 has atomic number  6 and mass  12.00000

 Molecular mass:    43.05478 amu.
 Principal axes and moments of inertia in atomic units:
                           1         2         3
     Eigenvalues --    44.20048 212.60748 235.37527
           X            0.99998  -0.00001   0.00639
           Y            0.00001   1.00000  -0.00002
           Z           -0.00639   0.00002   0.99998
 This molecule is an asymmetric top.
 Rotational symmetry number  1.
 Rotational temperatures (Kelvin)      1.95957     0.40739     0.36798
 Rotational constants (GHZ):          40.83081     8.48861     7.66751
 Zero-point vibrational energy     229606.1 (Joules/Mol)
                                   54.87718 (Kcal/Mol)
 Warning -- explicit consideration of   4 degrees of freedom as
           vibrations may cause significant error
 Vibrational temperatures:    223.84   223.89   604.89   874.08   990.49
          (Kelvin)           1315.09  1382.08  1557.68  1706.97  1782.83
                             1814.24  1851.10  1927.71  1928.63  2047.66
                             2104.39  2208.44  4117.36  4136.20  4392.22
                             4394.81  4516.32  4561.90  4567.64

 Zero-point correction=                           0.087452 (Hartree/Particle)
 Thermal correction to Energy=                    0.092329
 Thermal correction to Enthalpy=                  0.093273
 Thermal correction to Gibbs Free Energy=         0.061481
 Sum of electronic and zero-point Energies=           -118.132009
 Sum of electronic and thermal Energies=              -118.127132
 Sum of electronic and thermal Enthalpies=            -118.126188
 Sum of electronic and thermal Free Energies=         -118.157980

                     E (Thermal)             CV                S
                      KCal/Mol        Cal/Mol-Kelvin    Cal/Mol-Kelvin
 Total                   57.937             15.474             66.913
 Electronic               0.000              0.000              0.000
 Translational            0.889              2.981             37.206
 Rotational               0.889              2.981             22.319
 Vibrational             56.160              9.512              7.388
 Vibration     1          0.620              1.896              2.603
 Vibration     2          0.620              1.896              2.603
 Vibration     3          0.783              1.426              0.891
 Vibration     4          0.966              1.016              0.437

 Optimization completed.
    -- Stationary point found.
 Normal termination of Gaussian 09 at Thu Mar 15 08:41:29 2018.
