 Gaussian 09, Revision B.01,
 Gaussian 09:  EM64L-G09RevB.01 12-Aug-2010

 -------------------------------------------------
 #p Temperature=298.15 opt freq UB3LYP/aug-cc-pVDZ
 -------------------------------------------------

 ------------------------------------
 1-CH3-C2H5-UB3LYP-aug-cc-pVDZ-Duplet
 ------------------------------------
 Symbolic Z-matrix:
 Charge =  0 Multiplicity = 2

 SCF Done:  E(UB3LYP) =  -118.470511861     A.U. after   12 cycles
 SCF Done:  E(UB3LYP) =  -118.484830799     A.U. after   12 cycles
 SCF Done:  E(UB3LYP) =  -118.488758035     A.U. after   12 cycles
 SCF Done:  E(UB3LYP) =  -118.489460617     A.U. after   11 cycles
 SCF Done:  E(UB3LYP) =  -118.489585934     A.U. after   10 cycles
 SCF Done:  E(UB3LYP) =  -118.489633102     A.U. after   10 cycles
 SCF Done:  E(UB3LYP) =  -118.489646679     A.U. after    9 cycles
 SCF Done:  E(UB3LYP) =  -118.489651293     A.U. after    9 cycles
 SCF Done:  E(UB3LYP) =  -118.489652342     A.U. after    9 cycles
 Optimization completed.
    -- Stationary point found.
 Normal termination of Gaussian 09 at Tue Mar  6 03:55:12 2018.

 ----------------------------------------------------------------------
 #P Geom=AllCheck Guess=TCheck SCRF=Check GenChk UB3LYP/Aug-CC-pVDZ Fre
 q
 ----------------------------------------------------------------------

 1-CH3-C2H5-UB3LYP-aug-cc-pVDZ-Duplet
 ------------------------------------
 Redundant internal coordinates taken from checkpoint file:
 1-CH3-C2H5-UB3LYP-aug-cc-pVDZ-Duplet.chk
 Charge =  0 Multiplicity = 2

                         Standard orientation:
 ---------------------------------------------------------------------
 Center     Atomic      Atomic             Coordinates (Angstroms)
 Number     Number       Type             X           Y           Z
 ---------------------------------------------------------------------
      1          6           0        0.000000    0.536438   -0.030706
      2          1           0       -0.000003    1.622350    0.070756
      3          6           0        1.297989   -0.198253    0.001802
      4          1           0        2.154038    0.472352   -0.151184
      5          1           0        1.455292   -0.717524    0.968749
      6          1           0        1.337663   -0.985797   -0.771636
      7          6           0       -1.297989   -0.198254    0.001800
      8          1           0       -1.455354   -0.717417    0.968796
      9          1           0       -2.154030    0.472333   -0.151308
     10          1           0       -1.337611   -0.985881   -0.771553
 ---------------------------------------------------------------------

 SCF Done:  E(UB3LYP) =  -118.489652342     A.U. after    1 cycles

 The electronic state is 2-A.
 Alpha  occ. eigenvalues --  -10.19074 -10.18140 -10.18137  -0.78460  -0.69284
 Alpha  occ. eigenvalues --   -0.57257  -0.45366  -0.43137  -0.41184  -0.38670
 Alpha  occ. eigenvalues --   -0.35760  -0.35098  -0.18678
 Alpha virt. eigenvalues --   -0.00823   0.01052   0.01184   0.02188   0.04025
 Alpha virt. eigenvalues --    0.04314   0.04941   0.07493   0.07737   0.09230
 Alpha virt. eigenvalues --    0.09932   0.10731   0.10882   0.11221   0.12016

  Beta  occ. eigenvalues --  -10.18234 -10.18232 -10.17707  -0.76752  -0.69045
  Beta  occ. eigenvalues --   -0.55126  -0.44951  -0.41411  -0.40587  -0.38006
  Beta  occ. eigenvalues --   -0.35437  -0.34542
  Beta virt. eigenvalues --   -0.04846  -0.00789   0.01035   0.01248   0.02223
  Beta virt. eigenvalues --    0.04055   0.04297   0.04957   0.07530   0.08081
  Beta virt. eigenvalues --    0.09933   0.10046   0.10861   0.10920   0.11336

 Mulliken atomic charges:
              1
     1  C    0.672140
     2  H   -0.668389
     3  C    0.706906
     4  H   -0.300926
     5  H   -0.194392
     6  H   -0.213456
     7  C    0.706903
     8  H   -0.194391
     9  H   -0.300916
    10  H   -0.213480
 Sum of Mulliken atomic charges =   0.00000

 Dipole moment (field-independent basis, Debye):
    X=              0.0000    Y=             -0.1153    Z=              0.1191  Tot=              0.1658
 Quadrupole moment (field-independent basis, Debye-Ang):
   XX=            -21.0988   YY=            -21.0931   ZZ=            -22.0167
   XY=              0.0000   XZ=              0.0000   YZ=              0.2082

  Exact polarizability:  47.635  -0.025  41.463   0.002  -0.572  37.134
 Approx polarizability:  56.217   0.000  55.657   0.000  -0.625  50.925

                     1                      2                      3
                     A                      A                      A
 Frequencies --    85.2928               104.6767               330.2003
 Red. masses --     1.0815                 1.0218                 1.5033
 Frc consts  --     0.0046                 0.0066                 0.0966
 IR Inten    --     2.8227                 0.0060                21.3955

                     4                      5                      6
                     A                      A                      A
 Frequencies --   377.8451               890.1998               927.0952
 Red. masses --     1.8821                 2.5473                 1.2244
 Frc consts  --     0.1583                 1.1893                 0.6200
 IR Inten    --     3.4295                 2.0770                 0.4119

                     7                      8                      9
                     A                      A                      A
 Frequencies --   931.4593               997.2756              1152.1534
 Red. masses --     1.1864                 1.4423                 1.9326
 Frc consts  --     0.6065                 0.8451                 1.5116
 IR Inten    --     0.1074                 0.0131                 0.1585

                    10                     11                     12
                     A                      A                      A
 Frequencies --  1167.2216              1348.2083              1385.6364
 Red. masses --     1.9086                 1.2356                 1.2089
 Frc consts  --     1.5321                 1.3233                 1.3676
 IR Inten    --     1.9158                 0.8891                 4.5218

                    13                     14                     15
                     A                      A                      A
 Frequencies --  1400.4876              1434.8785              1445.4981
 Red. masses --     1.6358                 1.0849                 1.0460
 Frc consts  --     1.8904                 1.3160                 1.2877
 IR Inten    --     8.7719                 0.8417                13.0490

                    16                     17                     18
                     A                      A                      A
 Frequencies --  1446.1422              1461.9702              2944.6413
 Red. masses --     1.0447                 1.0573                 1.0555
 Frc consts  --     1.2873                 1.3314                 5.3923
 IR Inten    --     0.5016                 4.4101                27.1719

                    19                     20                     21
                     A                      A                      A
 Frequencies --  2949.4928              3005.4183              3005.9704
 Red. masses --     1.0581                 1.0819                 1.0785
 Frc consts  --     5.4233                 5.7579                 5.7420
 IR Inten    --    56.6798                 5.8049                56.6323

                    22                     23                     24
                     A                      A                      A
 Frequencies --  3097.8775              3099.1287              3184.4162
 Red. masses --     1.0934                 1.0945                 1.0895
 Frc consts  --     6.1822                 6.1936                 6.5093
 IR Inten    --    16.1975                29.7574                23.7610

 - Thermochemistry -
 -------------------
 Temperature   298.150 Kelvin.  Pressure   1.00000 Atm.
 Atom     1 has atomic number  6 and mass  12.00000

 Molecular mass:    43.05478 amu.
 Principal axes and moments of inertia in atomic units:
                           1         2         3
     Eigenvalues --    48.68415 217.17403 243.34362
           X            1.00000   0.00000   0.00000
           Y            0.00000   0.99991   0.01354
           Z            0.00000  -0.01354   0.99991
 This molecule is an asymmetric top.
 Rotational symmetry number  1.
 Rotational temperatures (Kelvin)      1.77910     0.39882     0.35593
 Rotational constants (GHZ):          37.07041     8.31012     7.41643
 Zero-point vibrational energy     228326.4 (Joules/Mol)
                                   54.57131 (Kcal/Mol)
 Warning -- explicit consideration of   4 degrees of freedom as
           vibrations may cause significant error
 Vibrational temperatures:    122.72   150.61   475.08   543.63  1280.80
          (Kelvin)           1333.88  1340.16  1434.86  1657.69  1679.37
                             1939.77  1993.62  2014.99  2064.47  2079.75
                             2080.67  2103.45  4236.68  4243.66  4324.12
                             4324.92  4457.15  4458.95  4581.66

 Zero-point correction=                           0.086965 (Hartree/Particle)
 Thermal correction to Energy=                    0.092280
 Thermal correction to Enthalpy=                  0.093224
 Thermal correction to Gibbs Free Energy=         0.059397
 Sum of electronic and zero-point Energies=           -118.402687
 Sum of electronic and thermal Energies=              -118.397372
 Sum of electronic and thermal Enthalpies=            -118.396428
 Sum of electronic and thermal Free Energies=         -118.430255

                     E (Thermal)             CV                S
                      KCal/Mol        Cal/Mol-Kelvin    Cal/Mol-Kelvin
 Total                   57.907             15.985             71.194
 Electronic               0.000              0.000              1.377
 Translational            0.889              2.981             37.206
 Rotational               0.889              2.981             22.469
 Vibrational             56.129             10.024             10.142
 Vibration     1          0.601              1.959              3.765
 Vibration     2          0.605              1.945              3.365
 Vibration     3          0.713              1.615              1.259
 Vibration     4          0.748              1.517              1.048

 Normal termination of Gaussian 09 at Tue Mar  6 03:56:20 2018.
