 Gaussian 09, Revision B.01,
 Gaussian 09:  EM64L-G09RevB.01 12-Aug-2010

 -------------------------------------------------
 #p Temperature=298.15 opt freq UB3LYP/aug-cc-pVDZ
 -------------------------------------------------

 --------------------------------------
 1-CH3-C2H5+-UB3LYP-aug-cc-pVDZ-Triplet
 --------------------------------------
 Symbolic Z-matrix:
 Charge =  1 Multiplicity = 3

 SCF Done:  E(UB3LYP) =  -117.991278249     A.U. after   14 cycles
 SCF Done:  E(UB3LYP) =  -118.039916158     A.U. after   13 cycles
 SCF Done:  E(UB3LYP) =  -118.064497031     A.U. after   13 cycles
 SCF Done:  E(UB3LYP) =  -118.074511514     A.U. after   12 cycles
 SCF Done:  E(UB3LYP) =  -118.077737611     A.U. after   13 cycles
 SCF Done:  E(UB3LYP) =  -118.078402973     A.U. after   12 cycles
 SCF Done:  E(UB3LYP) =  -118.078678829     A.U. after   11 cycles
 SCF Done:  E(UB3LYP) =  -118.078733271     A.U. after   11 cycles
 SCF Done:  E(UB3LYP) =  -118.078748583     A.U. after   10 cycles
 SCF Done:  E(UB3LYP) =  -118.078760104     A.U. after   11 cycles
 SCF Done:  E(UB3LYP) =  -118.078864433     A.U. after   11 cycles
 SCF Done:  E(UB3LYP) =  -118.078867412     A.U. after   11 cycles
 SCF Done:  E(UB3LYP) =  -118.078870322     A.U. after    9 cycles
 SCF Done:  E(UB3LYP) =  -118.078881509     A.U. after   11 cycles
 SCF Done:  E(UB3LYP) =  -118.078888006     A.U. after   10 cycles
 SCF Done:  E(UB3LYP) =  -118.078892107     A.U. after   11 cycles
 SCF Done:  E(UB3LYP) =  -118.078892883     A.U. after   10 cycles
 SCF Done:  E(UB3LYP) =  -118.078893514     A.U. after    9 cycles
 SCF Done:  E(UB3LYP) =  -118.078893610     A.U. after    9 cycles
 Optimization completed.
    -- Stationary point found.
 Normal termination of Gaussian 09 at Fri Feb  4 03:26:44 2005.

 ----------------------------------------------------------------------
 #P Geom=AllCheck Guess=TCheck SCRF=Check GenChk UB3LYP/Aug-CC-pVDZ Fre
 q
 ----------------------------------------------------------------------

 1-CH3-C2H5+-UB3LYP-aug-cc-pVDZ-Triplet
 --------------------------------------
 Redundant internal coordinates taken from checkpoint file:
 1-CH3-C2H5+-UB3LYP-aug-cc-pVDZ-Triplet.chk
 Charge =  1 Multiplicity = 3

                         Standard orientation:
 ---------------------------------------------------------------------
 Center     Atomic      Atomic             Coordinates (Angstroms)
 Number     Number       Type             X           Y           Z
 ---------------------------------------------------------------------
      1          6           0       -0.028729    0.362178   -0.170863
      2          1           0        0.211517    1.395641    0.304105
      3          6           0        1.387388   -0.158977    0.039380
      4          1           0        2.210006    0.523411   -0.218996
      5          1           0        1.512700   -0.554333    1.059291
      6          1           0        1.384980   -0.935586   -0.778171
      7          6           0       -1.366110   -0.142294    0.041363
      8          1           0       -1.527170   -0.561028    1.051056
      9          1           0       -2.129588    0.650140   -0.124794
     10          1           0       -1.617739   -0.883690   -0.751776
 ---------------------------------------------------------------------

 SCF Done:  E(UB3LYP) =  -118.078893610     A.U. after    1 cycles

 The electronic state is 3-A.
 Alpha  occ. eigenvalues --  -10.49365 -10.46606 -10.42631  -1.06613  -0.96122
 Alpha  occ. eigenvalues --   -0.83279  -0.72338  -0.69352  -0.66865  -0.64543
 Alpha  occ. eigenvalues --   -0.63083  -0.57371  -0.46545
 Alpha virt. eigenvalues --   -0.18456  -0.14791  -0.13505  -0.12758  -0.12194
 Alpha virt. eigenvalues --   -0.09876  -0.09415  -0.08978  -0.08316  -0.06602
 Alpha virt. eigenvalues --   -0.06054  -0.04953  -0.04430  -0.02896  -0.02198

  Beta  occ. eigenvalues --  -10.47459 -10.46225 -10.42579  -1.02733  -0.94529
  Beta  occ. eigenvalues --   -0.78484  -0.69073  -0.66964  -0.64731  -0.62612
  Beta  occ. eigenvalues --   -0.60937
  Beta virt. eigenvalues --   -0.46664  -0.30359  -0.17529  -0.13792  -0.13249
  Beta virt. eigenvalues --   -0.12085  -0.11637  -0.09172  -0.08928  -0.08537
  Beta virt. eigenvalues --   -0.07958  -0.06198  -0.05423  -0.04348  -0.03293

 Mulliken atomic charges:
              1
     1  C    0.122840
     2  H   -0.116976
     3  C    0.647492
     4  H   -0.179901
     5  H   -0.065489
     6  H    0.083671
     7  C    0.696908
     8  H   -0.072467
     9  H   -0.084789
    10  H   -0.031289
 Sum of Mulliken atomic charges =   1.00000

 Dipole moment (field-independent basis, Debye):
    X=              0.6796    Y=              0.3143    Z=              0.2797  Tot=              0.7993
 Quadrupole moment (field-independent basis, Debye-Ang):
   XX=             -7.6028   YY=            -14.9452   ZZ=            -17.3450
   XY=             -0.0309   XZ=              0.0250   YZ=              1.1429

  Exact polarizability:  64.913  -1.229  34.421  -0.430   0.845  30.294
 Approx polarizability:  92.789  -2.964  51.699  -0.867   2.515  42.655

                     1                      2                      3
                     A                      A                      A
 Frequencies --   125.9117               180.3510               214.6465
 Red. masses --     1.0369                 1.4296                 1.8874
 Frc consts  --     0.0097                 0.0274                 0.0512
 IR Inten    --     1.5419                14.7208                35.8640

                     4                      5                      6
                     A                      A                      A
 Frequencies --   390.0127               488.2104               752.6110
 Red. masses --     1.8498                 1.4142                 1.3032
 Frc consts  --     0.1658                 0.1986                 0.4349
 IR Inten    --    52.2545                32.0662                24.7181

                     7                      8                      9
                     A                      A                      A
 Frequencies --   824.4933               843.5534               935.4656
 Red. masses --     1.4975                 1.2924                 1.3826
 Frc consts  --     0.5998                 0.5418                 0.7128
 IR Inten    --     3.1202               365.3412               204.1318

                    10                     11                     12
                     A                      A                      A
 Frequencies --  1009.2802              1103.4506              1187.2101
 Red. masses --     1.3931                 1.4291                 1.2243
 Frc consts  --     0.8361                 1.0252                 1.0167
 IR Inten    --    17.4517                74.7757               105.8447

                    13                     14                     15
                     A                      A                      A
 Frequencies --  1269.5998              1290.5832              1330.4539
 Red. masses --     1.1042                 1.4497                 1.2137
 Frc consts  --     1.0486                 1.4227                 1.2658
 IR Inten    --    26.3034                29.7865                10.2023

                    16                     17                     18
                     A                      A                      A
 Frequencies --  1369.2042              1410.8094              2447.0852
 Red. masses --     1.1571                 1.0636                 1.0932
 Frc consts  --     1.2781                 1.2473                 3.8568
 IR Inten    --    12.1060                22.8688               210.1603

                    19                     20                     21
                     A                      A                      A
 Frequencies --  2759.3048              2900.2515              2919.9432
 Red. masses --     1.0551                 1.0543                 1.0700
 Frc consts  --     4.7332                 5.2248                 5.3752
 IR Inten    --   353.5512               115.5028                98.8517

                    22                     23                     24
                     A                      A                      A
 Frequencies --  3029.0079              3048.1039              3113.9683
 Red. masses --     1.0934                 1.0654                 1.1060
 Frc consts  --     5.9108                 5.8322                 6.3186
 IR Inten    --    15.2029                17.8625                24.1443

 - Thermochemistry -
 -------------------
 Temperature   298.150 Kelvin.  Pressure   1.00000 Atm.
 Atom     1 has atomic number  6 and mass  12.00000

 Molecular mass:    43.05478 amu.
 Principal axes and moments of inertia in atomic units:
                           1         2         3
     Eigenvalues --    39.43108 243.45235 254.99913
           X            0.99999   0.00381   0.00020
           Y           -0.00380   0.99068   0.13614
           Z            0.00032  -0.13614   0.99069
 This molecule is an asymmetric top.
 Rotational symmetry number  1.
 Rotational temperatures (Kelvin)      2.19659     0.35577     0.33966
 Rotational constants (GHZ):          45.76951     7.41312     7.07744
 Zero-point vibrational energy     209008.6 (Joules/Mol)
                                   49.95426 (Kcal/Mol)
 Warning -- explicit consideration of   5 degrees of freedom as
           vibrations may cause significant error
 Vibrational temperatures:    181.16   259.48   308.83   561.14   702.43
          (Kelvin)           1082.84  1186.26  1213.68  1345.92  1452.13
                             1587.62  1708.13  1826.67  1856.86  1914.22
                             1969.98  2029.84  3520.81  3970.02  4172.81
                             4201.14  4358.06  4385.54  4480.30

 Zero-point correction=                           0.079607 (Hartree/Particle)
 Thermal correction to Energy=                    0.085215
 Thermal correction to Enthalpy=                  0.086159
 Thermal correction to Gibbs Free Energy=         0.052005
 Sum of electronic and zero-point Energies=           -117.999286
 Sum of electronic and thermal Energies=              -117.993679
 Sum of electronic and thermal Enthalpies=            -117.992735
 Sum of electronic and thermal Free Energies=         -118.026889

                     E (Thermal)             CV                S
                      KCal/Mol        Cal/Mol-Kelvin    Cal/Mol-Kelvin
 Total                   53.473             18.251             71.884
 Electronic               0.000              0.000              2.183
 Translational            0.889              2.981             37.206
 Rotational               0.889              2.981             22.420
 Vibrational             51.696             12.289             10.075
 Vibration     1          0.611              1.927              3.008
 Vibration     2          0.629              1.866              2.325
 Vibration     3          0.645              1.819              2.004
 Vibration     4          0.758              1.492              1.000
 Vibration     5          0.844              1.276              0.688

 Normal termination of Gaussian 09 at Fri Feb  4 03:27:51 2005.
