 Gaussian 09, Revision B.01,
 Gaussian 09:  EM64L-G09RevB.01 12-Aug-2010

 -------------------------------------------------
 #p Temperature=298.15 opt freq UB3LYP/aug-cc-pVDZ
 -------------------------------------------------

 -----------------------------------------
 1-CH3-C2H5-N2+-UB3LYP-aug-cc-pVDZ-Triplet
 -----------------------------------------
 Symbolic Z-matrix:
 Charge =  1 Multiplicity = 3

 SCF Done:  E(UB3LYP) =  -227.470798088     A.U. after   24 cycles
 SCF Done:  E(UB3LYP) =  -227.533045633     A.U. after   21 cycles
 SCF Done:  E(UB3LYP) =  -227.567336724     A.U. after   22 cycles
 SCF Done:  E(UB3LYP) =  -227.587979118     A.U. after   20 cycles
 SCF Done:  E(UB3LYP) =  -227.574366745     A.U. after   20 cycles
 SCF Done:  E(UB3LYP) =  -227.581445630     A.U. after   18 cycles
 SCF Done:  E(UB3LYP) =  -227.584704912     A.U. after   20 cycles
 SCF Done:  E(UB3LYP) =  -227.589518524     A.U. after   16 cycles
 SCF Done:  E(UB3LYP) =  -227.581573968     A.U. after   20 cycles
 SCF Done:  E(UB3LYP) =  -227.590347729     A.U. after   19 cycles
 SCF Done:  E(UB3LYP) =  -227.603694292     A.U. after   13 cycles
 SCF Done:  E(UB3LYP) =  -227.603696073     A.U. after   12 cycles
 SCF Done:  E(UB3LYP) =  -227.603699544     A.U. after   13 cycles
 SCF Done:  E(UB3LYP) =  -227.603702195     A.U. after   13 cycles
 SCF Done:  E(UB3LYP) =  -227.603703667     A.U. after   17 cycles
 SCF Done:  E(UB3LYP) =  -227.603703223     A.U. after   17 cycles
 SCF Done:  E(UB3LYP) =  -227.603705855     A.U. after   13 cycles
 SCF Done:  E(UB3LYP) =  -227.603705789     A.U. after   11 cycles
 SCF Done:  E(UB3LYP) =  -227.603705908     A.U. after   11 cycles
 Optimization completed.
    -- Stationary point found.
 Normal termination of Gaussian 09 at Sat Feb 19 00:48:36 2005.

 ----------------------------------------------------------------------
 #P Geom=AllCheck Guess=TCheck SCRF=Check GenChk UB3LYP/Aug-CC-pVDZ Fre
 q
 ----------------------------------------------------------------------

 1-CH3-C2H5-N2+-UB3LYP-aug-cc-pVDZ-Triplet
 -----------------------------------------
 Redundant internal coordinates taken from checkpoint file:
 1-CH3-C2H5-N2+-UB3LYP-aug-cc-pVDZ-Triplet.chk
 Charge =  1 Multiplicity = 3

                         Standard orientation:
 ---------------------------------------------------------------------
 Center     Atomic      Atomic             Coordinates (Angstroms)
 Number     Number       Type             X           Y           Z
 ---------------------------------------------------------------------
      1          6           0        0.182433    0.127699    0.364967
      2          1           0        0.237001   -0.125415    1.437317
      3          7           0       -0.956646   -0.439677   -0.291446
      4          7           0       -2.075967   -0.227549    0.069010
      5          6           0        0.622965    1.463146   -0.104621
      6          1           0       -0.121565    2.179853    0.313439
      7          1           0        1.603794    1.744062    0.294695
      8          1           0        0.583846    1.569168   -1.196402
      9          6           0        1.516482   -1.092984   -0.077779
     10          1           0        2.354331   -0.696795    0.499951
     11          1           0        1.088320   -2.033835    0.273802
     12          1           0        1.551287   -0.953628   -1.161149
 ---------------------------------------------------------------------

 SCF Done:  E(UB3LYP) =  -227.603705908     A.U. after    1 cycles

 The electronic state is 3-A.
 Alpha  occ. eigenvalues --  -14.64591 -14.63092 -10.52818 -10.47783 -10.41730
 Alpha  occ. eigenvalues --   -1.30051  -1.07091  -0.94545  -0.92096  -0.80448
 Alpha  occ. eigenvalues --   -0.70840  -0.70579  -0.67630  -0.66243  -0.65416
 Alpha  occ. eigenvalues --   -0.62467  -0.61690  -0.60323  -0.55182  -0.43443
 Alpha virt. eigenvalues --   -0.27046  -0.20890  -0.16969  -0.13826  -0.12894
 Alpha virt. eigenvalues --   -0.12082  -0.10608  -0.09078  -0.08428  -0.07910
 Alpha virt. eigenvalues --   -0.07567  -0.07024  -0.05855  -0.04669  -0.04302

  Beta  occ. eigenvalues --  -14.64040 -14.61256 -10.52033 -10.47115 -10.41686
  Beta  occ. eigenvalues --   -1.27569  -1.04558  -0.92785  -0.89993  -0.78287
  Beta  occ. eigenvalues --   -0.69639  -0.66814  -0.66069  -0.64470  -0.63411
  Beta  occ. eigenvalues --   -0.60950  -0.59379  -0.58553
  Beta virt. eigenvalues --   -0.44350  -0.27626  -0.25205  -0.17354  -0.16240
  Beta virt. eigenvalues --   -0.13625  -0.12604  -0.11838  -0.10321  -0.08886
  Beta virt. eigenvalues --   -0.08215  -0.07750  -0.07115  -0.06509  -0.05598

 Mulliken atomic charges:
              1
     1  C    0.225137
     2  H   -0.202084
     3  N    0.164703
     4  N   -0.366431
     5  C    0.991850
     6  H   -0.097482
     7  H   -0.176896
     8  H   -0.103832
     9  C    0.813437
    10  H   -0.098859
    11  H   -0.112996
    12  H   -0.036546
 Sum of Mulliken atomic charges =   1.00000

 Dipole moment (field-independent basis, Debye):
    X=              4.1784    Y=              0.0520    Z=              0.8187  Tot=              4.2582
 Quadrupole moment (field-independent basis, Debye-Ang):
   XX=            -22.9349   YY=            -20.5760   ZZ=            -26.2392
   XY=             -2.2269   XZ=              0.1044   YZ=             -0.5977

  Exact polarizability:  71.176  -0.308  56.390   0.288   1.019  40.003
 Approx polarizability: 109.539  -0.802  78.719  -0.753   2.922  59.658

                     1                      2                      3
                     A                      A                      A
 Frequencies --    61.6466               174.1153               204.2370
 Red. masses --     7.3910                 1.0599                 1.1197
 Frc consts  --     0.0165                 0.0189                 0.0275
 IR Inten    --     0.0983                 0.6541                 1.8613

                     4                      5                      6
                     A                      A                      A
 Frequencies --   236.3705               252.7617               354.2492
 Red. masses --     3.8922                 2.7667                 6.4691
 Frc consts  --     0.1281                 0.1041                 0.4783
 IR Inten    --     2.0058                 3.8291                31.1471

                     7                      8                      9
                     A                      A                      A
 Frequencies --   413.9230               537.4691               699.5132
 Red. masses --     3.4007                 4.3874                 1.0911
 Frc consts  --     0.3433                 0.7467                 0.3145
 IR Inten    --     4.8435                 0.2811                19.5987

                    10                     11                     12
                     A                      A                      A
 Frequencies --   736.9581               829.7457               848.4360
 Red. masses --     1.1624                 1.2339                 2.0706
 Frc consts  --     0.3720                 0.5005                 0.8782
 IR Inten    --    27.4710                15.3031                 3.8884

                    13                     14                     15
                     A                      A                      A
 Frequencies --  1021.8820              1057.6316              1118.8787
 Red. masses --     2.0170                 1.6985                 1.6268
 Frc consts  --     1.2410                 1.1194                 1.1999
 IR Inten    --    58.2946                10.8942                 6.2289

                    16                     17                     18
                     A                      A                      A
 Frequencies --  1244.1577              1274.2566              1321.8726
 Red. masses --     1.1497                 1.3989                 1.1658
 Frc consts  --     1.0485                 1.3383                 1.2002
 IR Inten    --    34.8869                 9.0269                64.4584

                    19                     20                     21
                     A                      A                      A
 Frequencies --  1357.8830              1392.7876              1407.5776
 Red. masses --     1.0651                 1.1003                 1.0927
 Frc consts  --     1.1570                 1.2576                 1.2755
 IR Inten    --    11.8333                 7.9024                11.2677

                    22                     23                     24
                     A                      A                      A
 Frequencies --  1442.9972              1779.2733              2907.1588
 Red. masses --     1.1234                13.3141                 1.0603
 Frc consts  --     1.3782                24.8341                 5.2799
 IR Inten    --     9.4533               139.4933               149.6553

                    25                     26                     27
                     A                      A                      A
 Frequencies --  3032.5928              3067.2627              3085.6672
 Red. masses --     1.0838                 1.0156                 1.0660
 Frc consts  --     5.8725                 5.6294                 5.9801
 IR Inten    --    19.2589                16.8686                 4.9680

                    28                     29                     30
                     A                      A                      A
 Frequencies --  3156.8598              3239.1520              3243.8105
 Red. masses --     1.1060                 1.1162                 1.1161
 Frc consts  --     6.4942                 6.9003                 6.9196
 IR Inten    --     2.8509                11.6411                 6.0911

 - Thermochemistry -
 -------------------
 Temperature   298.150 Kelvin.  Pressure   1.00000 Atm.
 Atom     1 has atomic number  6 and mass  12.00000

 Molecular mass:    71.06092 amu.
 Principal axes and moments of inertia in atomic units:
                           1         2         3
     Eigenvalues --   242.62000 449.19140 631.49916
           X            0.99955  -0.02999  -0.00165
           Y            0.02997   0.99947  -0.01252
           Z            0.00202   0.01247   0.99992
 This molecule is an asymmetric top.
 Rotational symmetry number  1.
 Rotational temperatures (Kelvin)      0.35699     0.19282     0.13716
 Rotational constants (GHZ):           7.43855     4.01776     2.85787
 Zero-point vibrational energy     248231.9 (Joules/Mol)
                                   59.32884 (Kcal/Mol)
 Warning -- explicit consideration of   8 degrees of freedom as
           vibrations may cause significant error
 Vibrational temperatures:     88.70   250.51   293.85   340.08   363.67
          (Kelvin)            509.68   595.54   773.30  1006.44  1060.32
                             1193.82  1220.71  1470.26  1521.69  1609.81
                             1790.06  1833.37  1901.88  1953.69  2003.91
                             2025.19  2076.15  2559.97  4182.75  4363.22
                             4413.10  4439.58  4542.01  4660.41  4667.11

 Zero-point correction=                           0.094547 (Hartree/Particle)
 Thermal correction to Energy=                    0.101687
 Thermal correction to Enthalpy=                  0.102631
 Thermal correction to Gibbs Free Energy=         0.063201
 Sum of electronic and zero-point Energies=           -227.509159
 Sum of electronic and thermal Energies=              -227.502019
 Sum of electronic and thermal Enthalpies=            -227.501074
 Sum of electronic and thermal Free Energies=         -227.540505

                     E (Thermal)             CV                S
                      KCal/Mol        Cal/Mol-Kelvin    Cal/Mol-Kelvin
 Total                   63.810             23.993             82.989
 Electronic               0.000              0.000              2.183
 Translational            0.889              2.981             38.700
 Rotational               0.889              2.981             25.735
 Vibrational             62.032             18.031             16.372
 Vibration     1          0.597              1.973              4.404
 Vibration     2          0.627              1.874              2.391
 Vibration     3          0.640              1.834              2.095
 Vibration     4          0.655              1.785              1.830
 Vibration     5          0.664              1.758              1.711
 Vibration     6          0.730              1.567              1.147
 Vibration     7          0.778              1.440              0.913
 Vibration     8          0.892              1.167              0.571

 Optimization completed.
    -- Stationary point found.
 Normal termination of Gaussian 09 at Sat Feb 19 00:51:31 2005.
