 Gaussian 09, Revision B.01,
 Gaussian 09:  EM64L-G09RevB.01 12-Aug-2010

 -------------------------------------------------
 #p Temperature=298.15 opt freq UB3LYP/aug-cc-pVDZ
 -------------------------------------------------

 -----------------------------------------
 1-CH3-C2H5-N2+-UB3LYP-aug-cc-pVDZ-Singlet
 -----------------------------------------
 Symbolic Z-matrix:
 Charge =  1 Multiplicity = 1

 SCF Done:  E(UB3LYP) =  -227.715880766     A.U. after   12 cycles
 SCF Done:  E(UB3LYP) =  -227.756232346     A.U. after   11 cycles
 SCF Done:  E(UB3LYP) =  -227.757631748     A.U. after   12 cycles
 SCF Done:  E(UB3LYP) =  -227.758108586     A.U. after   12 cycles
 SCF Done:  E(UB3LYP) =  -227.758356774     A.U. after   12 cycles
 SCF Done:  E(UB3LYP) =  -227.758454718     A.U. after   12 cycles
 SCF Done:  E(UB3LYP) =  -227.758483064     A.U. after   14 cycles
 SCF Done:  E(UB3LYP) =  -227.758484672     A.U. after   14 cycles
 Optimization completed.
    -- Stationary point found.
 Normal termination of Gaussian 09 at Tue Mar  6 00:38:58 2018.

 ----------------------------------------------------------------------
 #P Geom=AllCheck Guess=TCheck SCRF=Check GenChk UB3LYP/Aug-CC-pVDZ Fre
 q
 ----------------------------------------------------------------------

 1-CH3-C2H5-N2+-UB3LYP-aug-cc-pVDZ-Singlet
 -----------------------------------------
 Redundant internal coordinates taken from checkpoint file:
 1-CH3-C2H5-N2+-UB3LYP-aug-cc-pVDZ-Singlet.chk
 Charge =  1 Multiplicity = 1

                         Standard orientation:
 ---------------------------------------------------------------------
 Center     Atomic      Atomic             Coordinates (Angstroms)
 Number     Number       Type             X           Y           Z
 ---------------------------------------------------------------------
      1          6           0       -0.449952   -0.000012   -0.408440
      2          1           0       -0.415830   -0.000023   -1.507323
      3          7           0        1.062297   -0.000163   -0.096165
      4          7           0        2.135642   -0.000078    0.159205
      5          6           0       -1.013441    1.300608    0.154000
      6          1           0       -0.517799    2.183000   -0.265758
      7          1           0       -2.069152    1.325768   -0.148964
      8          1           0       -0.965824    1.320252    1.248931
      9          6           0       -1.013762   -1.300424    0.154031
     10          1           0       -2.069460   -1.325280   -0.149021
     11          1           0       -0.518360   -2.182989   -0.265658
     12          1           0       -0.966217   -1.320062    1.248962
 ---------------------------------------------------------------------

 SCF Done:  E(UB3LYP) =  -227.758484672     A.U. after    1 cycles

 The electronic state is 1-A.
 Alpha  occ. eigenvalues --  -14.73813 -14.72112 -10.50803 -10.39302 -10.39300
 Alpha  occ. eigenvalues --   -1.40623  -1.08367  -0.91280  -0.91118  -0.78188
 Alpha  occ. eigenvalues --   -0.74432  -0.74173  -0.71209  -0.66820  -0.62482
 Alpha  occ. eigenvalues --   -0.60210  -0.59413  -0.57440  -0.57373
 Alpha virt. eigenvalues --   -0.29321  -0.29239  -0.19025  -0.15035  -0.13116
 Alpha virt. eigenvalues --   -0.12417  -0.11035  -0.09900  -0.08653  -0.08287
 Alpha virt. eigenvalues --   -0.07591  -0.07296  -0.06174  -0.05498  -0.04231

  Beta  occ. eigenvalues --  -14.73813 -14.72112 -10.50803 -10.39302 -10.39300
  Beta  occ. eigenvalues --   -1.40623  -1.08367  -0.91280  -0.91118  -0.78188
  Beta  occ. eigenvalues --   -0.74432  -0.74173  -0.71209  -0.66820  -0.62482
  Beta  occ. eigenvalues --   -0.60210  -0.59413  -0.57440  -0.57373
  Beta virt. eigenvalues --   -0.29321  -0.29239  -0.19025  -0.15035  -0.13116
  Beta virt. eigenvalues --   -0.12417  -0.11035  -0.09900  -0.08653  -0.08287
  Beta virt. eigenvalues --   -0.07591  -0.07296  -0.06174  -0.05498  -0.04231

 Mulliken atomic charges:
              1
     1  C    0.494533
     2  H   -0.514853
     3  N    0.614426
     4  N   -0.515172
     5  C    0.973529
     6  H   -0.219756
     7  H   -0.164862
     8  H   -0.128409
     9  C    0.973527
    10  H   -0.164801
    11  H   -0.219756
    12  H   -0.128407
 Sum of Mulliken atomic charges =   1.00000

 Dipole moment (field-independent basis, Debye):
    X=             -0.2738    Y=              0.0000    Z=             -0.7110  Tot=              0.7619
 Quadrupole moment (field-independent basis, Debye-Ang):
   XX=            -20.6978   YY=            -23.4812   ZZ=            -26.1256
   XY=             -0.0003   XZ=              0.0346   YZ=              0.0000

  Exact polarizability:  57.172   0.000  45.417   1.272   0.000  38.481
 Approx polarizability:  88.898  -0.001  58.344   5.532   0.000  56.672

                     1                      2                      3
                     A                      A                      A
 Frequencies --   171.4381               194.9075               203.6512
 Red. masses --     4.5603                 2.0851                 1.0260
 Frc consts  --     0.0790                 0.0467                 0.0251
 IR Inten    --     0.2393                 0.1308                 0.0854

                     4                      5                      6
                     A                      A                      A
 Frequencies --   268.9345               332.4356               389.9752
 Red. masses --     1.4741                 4.2586                 2.9756
 Frc consts  --     0.0628                 0.2773                 0.2666
 IR Inten    --     0.5952                 5.1680                12.2215

                     7                      8                      9
                     A                      A                      A
 Frequencies --   510.7331               526.4242               833.6202
 Red. masses --     4.9752                 2.8966                 2.8167
 Frc consts  --     0.7646                 0.4729                 1.1532
 IR Inten    --     2.3939                 0.6951                 0.9947

                    10                     11                     12
                     A                      A                      A
 Frequencies --   935.8518               945.9551              1082.3030
 Red. masses --     1.5092                 1.1463                 1.5004
 Frc consts  --     0.7788                 0.6044                 1.0355
 IR Inten    --     0.0181                 3.2349                29.4202

                    13                     14                     15
                     A                      A                      A
 Frequencies --  1145.0967              1176.1407              1307.1734
 Red. masses --     2.1331                 1.7799                 1.4855
 Frc consts  --     1.6479                 1.4507                 1.4955
 IR Inten    --     6.4548                 5.3625                 0.2844

                    16                     17                     18
                     A                      A                      A
 Frequencies --  1323.8097              1389.6305              1409.8423
 Red. masses --     1.1302                 1.1828                 1.1832
 Frc consts  --     1.1670                 1.3457                 1.3857
 IR Inten    --    13.3688                 8.6995                 4.0263

                    19                     20                     21
                     A                      A                      A
 Frequencies --  1444.2684              1455.1474              1459.5938
 Red. masses --     1.0424                 1.0493                 1.0388
 Frc consts  --     1.2810                 1.3091                 1.3039
 IR Inten    --     7.4574                 0.1898                16.9134

                    22                     23                     24
                     A                      A                      A
 Frequencies --  1480.8590              2428.3172              3055.3730
 Red. masses --     1.0537                13.6905                 1.0350
 Frc consts  --     1.3614                47.5643                 5.6926
 IR Inten    --    15.3542                 2.4629                 1.9029

                    25                     26                     27
                     A                      A                      A
 Frequencies --  3057.6794              3095.4570              3135.8128
 Red. masses --     1.0351                 1.0873                 1.1022
 Frc consts  --     5.7021                 6.1385                 6.3855
 IR Inten    --     3.3925                 7.8290                 1.7650

                    28                     29                     30
                     A                      A                      A
 Frequencies --  3139.4299              3158.8124              3160.8009
 Red. masses --     1.1018                 1.1070                 1.1070
 Frc consts  --     6.3980                 6.5080                 6.5162
 IR Inten    --     5.5143                 0.3007                 0.2620

 - Thermochemistry -
 -------------------
 Temperature   298.150 Kelvin.  Pressure   1.00000 Atm.
 Atom     1 has atomic number  6 and mass  12.00000

 Molecular mass:    71.06092 amu.
 Principal axes and moments of inertia in atomic units:
                           1         2         3
     Eigenvalues --   235.40759 449.50433 622.99900
           X            0.99997   0.00001  -0.00834
           Y           -0.00001   1.00000   0.00000
           Z            0.00834   0.00000   0.99997
 This molecule is an asymmetric top.
 Rotational symmetry number  1.
 Rotational temperatures (Kelvin)      0.36793     0.19269     0.13903
 Rotational constants (GHZ):           7.66645     4.01496     2.89686
 Zero-point vibrational energy     264491.2 (Joules/Mol)
                                   63.21491 (Kcal/Mol)
 Warning -- explicit consideration of   8 degrees of freedom as
           vibrations may cause significant error
 Vibrational temperatures:    246.66   280.43   293.01   386.94   478.30
          (Kelvin)            561.09   734.83   757.41  1199.39  1346.48
                             1361.02  1557.19  1647.54  1692.20  1880.73
                             1904.66  1999.37  2028.45  2077.98  2093.63
                             2100.03  2130.62  3493.80  4395.99  4399.31
                             4453.67  4511.73  4516.93  4544.82  4547.68

 Zero-point correction=                           0.100739 (Hartree/Particle)
 Thermal correction to Energy=                    0.107172
 Thermal correction to Enthalpy=                  0.108116
 Thermal correction to Gibbs Free Energy=         0.071580
 Sum of electronic and zero-point Energies=           -227.657745
 Sum of electronic and thermal Energies=              -227.651313
 Sum of electronic and thermal Enthalpies=            -227.650368
 Sum of electronic and thermal Free Energies=         -227.686905

                     E (Thermal)             CV                S
                      KCal/Mol        Cal/Mol-Kelvin    Cal/Mol-Kelvin
 Total                   67.251             21.863             76.897
 Electronic               0.000              0.000              0.000
 Translational            0.889              2.981             38.700
 Rotational               0.889              2.981             25.692
 Vibrational             65.474             15.901             12.505
 Vibration     1          0.626              1.878              2.420
 Vibration     2          0.636              1.847              2.181
 Vibration     3          0.639              1.835              2.100
 Vibration     4          0.673              1.730              1.603
 Vibration     5          0.714              1.611              1.248
 Vibration     6          0.758              1.492              1.000
 Vibration     7          0.866              1.226              0.632
 Vibration     8          0.881              1.192              0.595

 Optimization completed.
    -- Stationary point found.
 Normal termination of Gaussian 09 at Tue Mar  6 00:41:41 2018.
