 Gaussian 09, Revision B.01,
 Gaussian 09:  EM64L-G09RevB.01 12-Aug-2010

 -------------------------------------------------
 #p Temperature=298.15 opt freq UB3LYP/aug-cc-pVDZ
 -------------------------------------------------

 ---------------------------------------
 1-CH3-C2H5-N2-UB3LYP-aug-cc-pVDZ-Duplet
 ---------------------------------------
 Symbolic Z-matrix:
 Charge =  0 Multiplicity = 2

 SCF Done:  E(UB3LYP) =  -227.959304542     A.U. after   24 cycles
 SCF Done:  E(UB3LYP) =  -227.968897743     A.U. after   44 cycles
 SCF Done:  E(UB3LYP) =  -227.978551724     A.U. after   19 cycles
 SCF Done:  E(UB3LYP) =  -228.004686668     A.U. after   17 cycles
 SCF Done:  E(UB3LYP) =  -227.965062241     A.U. after   16 cycles
 SCF Done:  E(UB3LYP) =  -228.006493213     A.U. after   18 cycles
 SCF Done:  E(UB3LYP) =  -228.004828238     A.U. after   17 cycles
 SCF Done:  E(UB3LYP) =  -228.010227121     A.U. after   17 cycles
 SCF Done:  E(UB3LYP) =  -228.010933291     A.U. after   13 cycles
 SCF Done:  E(UB3LYP) =  -228.011207091     A.U. after   13 cycles
 SCF Done:  E(UB3LYP) =  -228.011238680     A.U. after   12 cycles
 SCF Done:  E(UB3LYP) =  -228.011241641     A.U. after   11 cycles
 SCF Done:  E(UB3LYP) =  -228.011242001     A.U. after   10 cycles
 SCF Done:  E(UB3LYP) =  -228.011242276     A.U. after   10 cycles
 SCF Done:  E(UB3LYP) =  -228.011242518     A.U. after   10 cycles
 SCF Done:  E(UB3LYP) =  -228.011242595     A.U. after    9 cycles
 Optimization completed.
    -- Stationary point found.
 Normal termination of Gaussian 09 at Tue Mar  6 03:50:38 2018.

 ----------------------------------------------------------------------
 #P Geom=AllCheck Guess=TCheck SCRF=Check GenChk UB3LYP/Aug-CC-pVDZ Fre
 q
 ----------------------------------------------------------------------

 1-CH3-C2H5-N2-UB3LYP-aug-cc-pVDZ-Duplet
 ---------------------------------------
 Redundant internal coordinates taken from checkpoint file:
 1-CH3-C2H5-N2-UB3LYP-aug-cc-pVDZ-Duplet.chk
 Charge =  0 Multiplicity = 2

                         Standard orientation:
 ---------------------------------------------------------------------
 Center     Atomic      Atomic             Coordinates (Angstroms)
 Number     Number       Type             X           Y           Z
 ---------------------------------------------------------------------
      1          6           0        0.393745    0.027327   -0.421746
      2          1           0        0.509116   -0.002083   -1.514395
      3          7           0       -0.971136   -0.683812   -0.219694
      4          7           0       -1.905985   -0.174405    0.274475
      5          6           0        1.449856   -0.861140    0.226558
      6          1           0        1.380159   -1.889970   -0.148255
      7          1           0        2.452470   -0.474245   -0.001379
      8          1           0        1.327685   -0.878165    1.318463
      9          6           0        0.377795    1.462542    0.083328
     10          1           0        1.342535    1.939634   -0.138435
     11          1           0       -0.417359    2.045411   -0.397589
     12          1           0        0.216862    1.494567    1.169278
 ---------------------------------------------------------------------

 SCF Done:  E(UB3LYP) =  -228.011242595     A.U. after    1 cycles

 The electronic state is 2-A.
 Alpha  occ. eigenvalues --  -14.40865 -14.39026 -10.24945 -10.19775 -10.19463
 Alpha  occ. eigenvalues --   -1.06548  -0.82734  -0.71072  -0.66772  -0.54619
 Alpha  occ. eigenvalues --   -0.49476  -0.47279  -0.44712  -0.41192  -0.41041
 Alpha  occ. eigenvalues --   -0.39716  -0.39090  -0.36445  -0.35839  -0.19585
 Alpha virt. eigenvalues --   -0.03631  -0.01194   0.00680   0.00791   0.01983
 Alpha virt. eigenvalues --    0.03515   0.04113   0.04584   0.06043   0.06619
 Alpha virt. eigenvalues --    0.07817   0.08842   0.09634   0.10004   0.10565

  Beta  occ. eigenvalues --  -14.40537 -14.37605 -10.24499 -10.19790 -10.19454
  Beta  occ. eigenvalues --   -1.04873  -0.81928  -0.70971  -0.65409  -0.53500
  Beta  occ. eigenvalues --   -0.48282  -0.45396  -0.43766  -0.40803  -0.40178
  Beta  occ. eigenvalues --   -0.38555  -0.37945  -0.35787  -0.34727
  Beta virt. eigenvalues --   -0.06562  -0.02609  -0.00990   0.00690   0.00812
  Beta virt. eigenvalues --    0.02074   0.03526   0.04147   0.04576   0.06139
  Beta virt. eigenvalues --    0.06692   0.07987   0.08825   0.09666   0.10070

 Mulliken atomic charges:
              1
     1  C    0.285313
     2  H   -0.470697
     3  N    0.062360
     4  N   -0.580307
     5  C    0.992505
     6  H   -0.259958
     7  H   -0.226416
     8  H   -0.226585
     9  C    1.096956
    10  H   -0.265654
    11  H   -0.237465
    12  H   -0.170054
 Sum of Mulliken atomic charges =   0.00000

 Dipole moment (field-independent basis, Debye):
    X=              2.7879    Y=              0.7338    Z=             -0.5583  Tot=              2.9364
 Quadrupole moment (field-independent basis, Debye-Ang):
   XX=            -35.9737   YY=            -32.2326   ZZ=            -30.9462
   XY=             -0.9504   XZ=              0.6319   YZ=             -0.5410

  Exact polarizability:  63.095  -1.067  53.841  -2.726   1.143  46.415
 Approx polarizability:  88.311  -3.945  70.719  -8.259   3.114  69.236

                     1                      2                      3
                     A                      A                      A
 Frequencies --    78.3231               201.9545               235.9453
 Red. masses --     5.7329                 1.0246                 1.1363
 Frc consts  --     0.0207                 0.0246                 0.0373
 IR Inten    --     0.0255                 0.0055                 0.2953

                     4                      5                      6
                     A                      A                      A
 Frequencies --   286.6566               353.8600               427.6268
 Red. masses --     3.2589                 2.4791                 2.9581
 Frc consts  --     0.1578                 0.1829                 0.3187
 IR Inten    --     2.5072                 0.9263                 4.7515

                     7                      8                      9
                     A                      A                      A
 Frequencies --   545.6645               573.6430               869.1777
 Red. masses --     3.1351                 7.8540                 2.5840
 Frc consts  --     0.5500                 1.5227                 1.1502
 IR Inten    --     2.5951                 6.2808                 0.2477

                    10                     11                     12
                     A                      A                      A
 Frequencies --   927.0669               946.5887              1071.4260
 Red. masses --     1.1505                 1.3979                 1.4295
 Frc consts  --     0.5826                 0.7380                 0.9669
 IR Inten    --     0.7932                 0.3198                10.0738

                    13                     14                     15
                     A                      A                      A
 Frequencies --  1150.5504              1172.4962              1269.5683
 Red. masses --     2.1609                 1.9034                 1.2202
 Frc consts  --     1.6854                 1.5417                 1.1588
 IR Inten    --     7.4429                 5.6068                 4.3745

                    16                     17                     18
                     A                      A                      A
 Frequencies --  1339.7803              1383.8272              1397.4841
 Red. masses --     1.3795                 1.3243                 1.2347
 Frc consts  --     1.4589                 1.4942                 1.4207
 IR Inten    --     1.4337                12.6555                 4.7569

                    19                     20                     21
                     A                      A                      A
 Frequencies --  1456.2044              1458.8440              1468.6399
 Red. masses --     1.0495                 1.0465                 1.0427
 Frc consts  --     1.3112                 1.3122                 1.3250
 IR Inten    --     1.5489                 0.4008                 8.0157

                    22                     23                     24
                     A                      A                      A
 Frequencies --  1480.2846              1898.7407              3036.7757
 Red. masses --     1.0471                13.2051                 1.0353
 Frc consts  --     1.3519                28.0494                 5.6251
 IR Inten    --     9.5448                16.1855                14.7804

                    25                     26                     27
                     A                      A                      A
 Frequencies --  3041.1624              3066.0899              3108.0616
 Red. masses --     1.0358                 1.0851                 1.1026
 Frc consts  --     5.6440                 6.0101                 6.2756
 IR Inten    --    15.1546                 7.0396                 1.1103

                    28                     29                     30
                     A                      A                      A
 Frequencies --  3115.0834              3123.8587              3125.3602
 Red. masses --     1.1014                 1.1023                 1.1021
 Frc consts  --     6.2972                 6.3379                 6.3424
 IR Inten    --    35.8387                15.6752                21.3984

 - Thermochemistry -
 -------------------
 Temperature   298.150 Kelvin.  Pressure   1.00000 Atm.
 Atom     1 has atomic number  6 and mass  12.00000

 Molecular mass:    71.06092 amu.
 Principal axes and moments of inertia in atomic units:
                           1         2         3
     Eigenvalues --   237.09649 409.37595 573.67235
           X            0.99845  -0.05456   0.01103
           Y            0.05462   0.99850  -0.00491
           Z           -0.01075   0.00551   0.99993
 This molecule is an asymmetric top.
 Rotational symmetry number  1.
 Rotational temperatures (Kelvin)      0.36531     0.21158     0.15098
 Rotational constants (GHZ):           7.61184     4.40852     3.14594
 Zero-point vibrational energy     260850.2 (Joules/Mol)
                                   62.34469 (Kcal/Mol)
 Warning -- explicit consideration of   8 degrees of freedom as
           vibrations may cause significant error
 Vibrational temperatures:    112.69   290.57   339.47   412.43   509.12
          (Kelvin)            615.26   785.09   825.34  1250.55  1333.84
                             1361.93  1541.54  1655.38  1686.96  1826.62
                             1927.64  1991.02  2010.67  2095.15  2098.95
                             2113.04  2129.80  2731.86  4369.24  4375.55
                             4411.41  4471.80  4481.90  4494.53  4496.69

 Zero-point correction=                           0.099353 (Hartree/Particle)
 Thermal correction to Energy=                    0.105754
 Thermal correction to Enthalpy=                  0.106698
 Thermal correction to Gibbs Free Energy=         0.069279
 Sum of electronic and zero-point Energies=           -227.911890
 Sum of electronic and thermal Energies=              -227.905488
 Sum of electronic and thermal Enthalpies=            -227.904544
 Sum of electronic and thermal Free Energies=         -227.941964

                     E (Thermal)             CV                S
                      KCal/Mol        Cal/Mol-Kelvin    Cal/Mol-Kelvin
 Total                   66.362             21.545             78.756
 Electronic               0.000              0.000              1.377
 Translational            0.889              2.981             38.700
 Rotational               0.889              2.981             25.524
 Vibrational             64.584             15.583             13.155
 Vibration     1          0.600              1.964              3.932
 Vibration     2          0.639              1.837              2.115
 Vibration     3          0.655              1.786              1.833
 Vibration     4          0.684              1.698              1.494
 Vibration     5          0.730              1.567              1.149
 Vibration     6          0.789              1.410              0.866
 Vibration     7          0.901              1.149              0.553
 Vibration     8          0.930              1.088              0.497

 Optimization completed.
    -- Stationary point found.
 Normal termination of Gaussian 09 at Tue Mar  6 03:53:32 2018.
