 Gaussian 09, Revision B.01,
 Gaussian 09:  EM64L-G09RevB.01 12-Aug-2010

 ----------------------------------------------------------------------
 #p Temperature=298.15 opt=(maxcycles=1024) SCF=(maxcycles=1024) freq U
 B3LYP/aug-cc-pVDZ
 ----------------------------------------------------------------------

 -----------------------------------------------
 1H-1,2,4-Triazole-3+-UB3LYP-aug-cc-pVDZ-Triplet
 -----------------------------------------------
 Symbolic Z-matrix:
 Charge =  1 Multiplicity = 3

 SCF Done:  E(UB3LYP) =  -241.182101934     A.U. after   25 cycles
 SCF Done:  E(UB3LYP) =  -241.214217173     A.U. after   20 cycles
 SCF Done:  E(UB3LYP) =  -241.218570582     A.U. after   16 cycles
 SCF Done:  E(UB3LYP) =  -241.218908976     A.U. after   17 cycles
 SCF Done:  E(UB3LYP) =  -241.218937358     A.U. after   17 cycles
 SCF Done:  E(UB3LYP) =  -241.218887546     A.U. after   15 cycles
 SCF Done:  E(UB3LYP) =  -241.218971921     A.U. after   14 cycles
 SCF Done:  E(UB3LYP) =  -241.218973530     A.U. after   17 cycles
 Optimization completed.
    -- Stationary point found.
 Normal termination of Gaussian 09 at Thu Apr 12 00:51:03 2018.

 ----------------------------------------------------------------------
 #P Geom=AllCheck Guess=TCheck SCRF=Check GenChk UB3LYP/Aug-CC-pVDZ Fre
 q
 ----------------------------------------------------------------------

 1H-1,2,4-Triazole-3+-UB3LYP-aug-cc-pVDZ-Triplet
 -----------------------------------------------
 Redundant internal coordinates taken from checkpoint file:
 /home/ubuntu/g09/Gau-9916.chk
 Charge =  1 Multiplicity = 3

                         Standard orientation:
 ---------------------------------------------------------------------
 Center     Atomic      Atomic             Coordinates (Angstroms)
 Number     Number       Type             X           Y           Z
 ---------------------------------------------------------------------
      1          6           0        0.324584   -1.132882    0.000493
      2          6           0        0.536241    0.923580    0.000169
      3          1           0        0.915162    1.946116    0.000220
      4          7           0       -0.844725    0.604327   -0.000036
      5          1           0       -1.649111    1.240391    0.000348
      6          7           0       -1.027112   -0.674907   -0.000250
      7          7           0        1.238837   -0.205233   -0.000362
 ---------------------------------------------------------------------

 SCF Done:  E(UB3LYP) =  -241.218973530     A.U. after    1 cycles

 The electronic state is 3-A.
 Alpha  occ. eigenvalues --  -14.72868 -14.69961 -14.62349 -10.58016 -10.57712
 Alpha  occ. eigenvalues --   -1.39990  -1.22308  -1.11169  -0.94322  -0.90302
 Alpha  occ. eigenvalues --   -0.84435  -0.77315  -0.75826  -0.63158  -0.61647
 Alpha  occ. eigenvalues --   -0.59834  -0.56776  -0.55252
 Alpha virt. eigenvalues --   -0.31937  -0.24988  -0.19137  -0.14852  -0.14077
 Alpha virt. eigenvalues --   -0.11776  -0.11135  -0.09382  -0.08561  -0.07659
 Alpha virt. eigenvalues --   -0.06138  -0.05122  -0.04945  -0.04232  -0.03192

  Beta  occ. eigenvalues --  -14.72695 -14.68984 -14.62356 -10.57281 -10.55462
  Beta  occ. eigenvalues --   -1.38416  -1.21546  -1.08305  -0.92878  -0.87992
  Beta  occ. eigenvalues --   -0.82888  -0.74642  -0.73646  -0.61617  -0.60308
  Beta  occ. eigenvalues --   -0.57272
  Beta virt. eigenvalues --   -0.45118  -0.37537  -0.26889  -0.20591  -0.18970
  Beta virt. eigenvalues --   -0.14523  -0.13367  -0.11362  -0.10874  -0.08882
  Beta virt. eigenvalues --   -0.07690  -0.06344  -0.05612  -0.05026  -0.04600

 Mulliken atomic charges:
              1
     1  C    0.239488
     2  C    0.819633
     3  H   -0.108837
     4  N    0.180831
     5  H    0.014411
     6  N   -0.103963
     7  N   -0.041563
 Sum of Mulliken atomic charges =   1.00000

 Dipole moment (field-independent basis, Debye):
    X=             -1.5469    Y=              3.3737    Z=              0.0022  Tot=              3.7114
 Quadrupole moment (field-independent basis, Debye-Ang):
   XX=            -23.2078   YY=            -16.0112   ZZ=            -25.5088
   XY=             -2.1556   XZ=             -0.0007   YZ=              0.0002

  Exact polarizability:  39.902   0.908  41.366  -0.001  -0.002  22.502
 Approx polarizability:  65.741   2.889  74.432  -0.003  -0.004  33.652

                     1                      2                      3
                     A                      A                      A
 Frequencies --   517.0443               604.4791               776.5612
 Red. masses --     2.6581                 8.4632                 6.9392
 Frc consts  --     0.4187                 1.8220                 2.4655
 IR Inten    --     7.1784                 2.9481                 2.2413

                     4                      5                      6
                     A                      A                      A
 Frequencies --   786.9362               862.8113               883.2088
 Red. masses --     1.1863                 8.1044                 1.6901
 Frc consts  --     0.4328                 3.5547                 0.7768
 IR Inten    --    98.6600                 2.9017                 2.6645

                     7                      8                      9
                     A                      A                      A
 Frequencies --   952.7130              1050.9135              1194.6184
 Red. masses --     6.1122                 4.2750                 1.5953
 Frc consts  --     3.2687                 2.7817                 1.3414
 IR Inten    --    13.6383                24.0277                25.1780

                    10                     11                     12
                     A                      A                      A
 Frequencies --  1239.0707              1357.9956              1419.7568
 Red. masses --     7.3449                 2.2120                 3.8014
 Frc consts  --     6.6440                 2.4035                 4.5146
 IR Inten    --    69.0493                 3.8144               114.7037

                    13                     14                     15
                     A                      A                      A
 Frequencies --  1481.8635              3234.8440              3478.4201
 Red. masses --     2.5527                 1.1036                 1.0852
 Frc consts  --     3.3027                 6.8044                 7.7363
 IR Inten    --    23.9296                40.3729               249.5464

 - Thermochemistry -
 -------------------
 Temperature   298.150 Kelvin.  Pressure   1.00000 Atm.
 Atom     1 has atomic number  6 and mass  12.00000

 Molecular mass:    68.02487 amu.
 Principal axes and moments of inertia in atomic units:
                           1         2         3
     Eigenvalues --   153.31435 194.81980 348.13411
           X            0.99968  -0.02548  -0.00001
           Y            0.02548   0.99968   0.00002
           Z            0.00001  -0.00002   1.00000
 This molecule is an asymmetric top.
 Rotational symmetry number  1.
 Rotational temperatures (Kelvin)      0.56494     0.44458     0.24879
 Rotational constants (GHZ):          11.77151     9.26364     5.18404
 Zero-point vibrational energy     118676.9 (Joules/Mol)
                                   28.36447 (Kcal/Mol)
 Warning -- explicit consideration of   2 degrees of freedom as
           vibrations may cause significant error
 Vibrational temperatures:    743.91   869.71  1117.30  1132.22  1241.39
          (Kelvin)           1270.74  1370.74  1512.03  1718.79  1782.74
                             1953.85  2042.71  2132.07  4654.21  5004.66

 Zero-point correction=                           0.045202 (Hartree/Particle)
 Thermal correction to Energy=                    0.048818
 Thermal correction to Enthalpy=                  0.049762
 Thermal correction to Gibbs Free Energy=         0.018050
 Sum of electronic and zero-point Energies=           -241.173772
 Sum of electronic and thermal Energies=              -241.170156
 Sum of electronic and thermal Enthalpies=            -241.169212
 Sum of electronic and thermal Free Energies=         -241.200923

                     E (Thermal)             CV                S
                      KCal/Mol        Cal/Mol-Kelvin    Cal/Mol-Kelvin
 Total                   30.634             12.082             66.742
 Electronic               0.000              0.000              2.183
 Translational            0.889              2.981             38.570
 Rotational               0.889              2.981             23.857
 Vibrational             28.856              6.120              2.133
 Vibration     1          0.872              1.212              0.617
 Vibration     2          0.963              1.022              0.442

 Optimization completed.
    -- Stationary point found.
 Normal termination of Gaussian 09 at Thu Apr 12 00:51:59 2018.
