 Gaussian 09, Revision B.01,
 Gaussian 09:  EM64L-G09RevB.01 12-Aug-2010

 ----------------------------------------------------------------------
 #p Temperature=298.15 opt=(maxcycles=1024) SCF=(maxcycles=1024) freq U
 B3LYP/aug-cc-pVDZ
 ----------------------------------------------------------------------

 -----------------------------------------------
 1H-1,2,3-Triazole-5+-UB3LYP-aug-cc-pVDZ-Singlet
 -----------------------------------------------
 Symbolic Z-matrix:
 Charge =  1 Multiplicity = 1

 SCF Done:  E(UB3LYP) =  -241.134314987     A.U. after   23 cycles
 SCF Done:  E(UB3LYP) =  -241.165271125     A.U. after   15 cycles
 SCF Done:  E(UB3LYP) =  -241.174287591     A.U. after   14 cycles
 SCF Done:  E(UB3LYP) =  -241.175562401     A.U. after   14 cycles
 SCF Done:  E(UB3LYP) =  -241.175382208     A.U. after   15 cycles
 SCF Done:  E(UB3LYP) =  -241.175850134     A.U. after   13 cycles
 SCF Done:  E(UB3LYP) =  -241.176089014     A.U. after   14 cycles
 SCF Done:  E(UB3LYP) =  -241.176177496     A.U. after   16 cycles
 SCF Done:  E(UB3LYP) =  -241.176183728     A.U. after   16 cycles
 Optimization completed.
    -- Stationary point found.
 Normal termination of Gaussian 09 at Wed Apr 11 23:39:15 2018.

 ----------------------------------------------------------------------
 #P Geom=AllCheck Guess=TCheck SCRF=Check GenChk UB3LYP/Aug-CC-pVDZ Fre
 q
 ----------------------------------------------------------------------

 1H-1,2,3-Triazole-5+-UB3LYP-aug-cc-pVDZ-Singlet
 -----------------------------------------------
 Redundant internal coordinates taken from checkpoint file:
 /home/ubuntu/g09/Gau-24045.chk
 Charge =  1 Multiplicity = 1

                         Standard orientation:
 ---------------------------------------------------------------------
 Center     Atomic      Atomic             Coordinates (Angstroms)
 Number     Number       Type             X           Y           Z
 ---------------------------------------------------------------------
      1          6           0        0.174445   -0.993846   -0.000132
      2          6           0        1.289856   -0.260454    0.000078
      3          1           0        2.368243   -0.372115    0.000029
      4          7           0       -1.050687   -0.468511    0.000082
      5          1           0       -1.977448   -0.898190    0.000082
      6          7           0       -0.809953    0.832433   -0.000046
      7          7           0        0.549696    0.892665   -0.000007
 ---------------------------------------------------------------------

 SCF Done:  E(UB3LYP) =  -241.176183728     A.U. after    1 cycles

 The electronic state is 1-A.
 Alpha  occ. eigenvalues --  -14.71951 -14.68963 -14.68868 -10.59090 -10.53435
 Alpha  occ. eigenvalues --   -1.41125  -1.19794  -1.10902  -0.92775  -0.91851
 Alpha  occ. eigenvalues --   -0.82434  -0.77566  -0.75938  -0.63284  -0.59449
 Alpha  occ. eigenvalues --   -0.55955  -0.55221
 Alpha virt. eigenvalues --   -0.43198  -0.29057  -0.23990  -0.18634  -0.14811
 Alpha virt. eigenvalues --   -0.12714  -0.12404  -0.11271  -0.11167  -0.07280
 Alpha virt. eigenvalues --   -0.06802  -0.06217  -0.06207  -0.04439  -0.03746

  Beta  occ. eigenvalues --  -14.71951 -14.68963 -14.68868 -10.59090 -10.53435
  Beta  occ. eigenvalues --   -1.41125  -1.19794  -1.10902  -0.92775  -0.91851
  Beta  occ. eigenvalues --   -0.82434  -0.77566  -0.75938  -0.63284  -0.59449
  Beta  occ. eigenvalues --   -0.55955  -0.55221
  Beta virt. eigenvalues --   -0.43198  -0.29057  -0.23990  -0.18634  -0.14811
  Beta virt. eigenvalues --   -0.12714  -0.12404  -0.11271  -0.11167  -0.07280
  Beta virt. eigenvalues --   -0.06802  -0.06217  -0.06207  -0.04439  -0.03746

 Mulliken atomic charges:
              1
     1  C    0.445706
     2  C    0.741314
     3  H   -0.190302
     4  N    0.146609
     5  H   -0.002709
     6  N   -0.044047
     7  N   -0.096571
 Sum of Mulliken atomic charges =   1.00000

 Dipole moment (field-independent basis, Debye):
    X=              0.0216    Y=             -3.7779    Z=              0.0004  Tot=              3.7780
 Quadrupole moment (field-independent basis, Debye-Ang):
   XX=            -11.6890   YY=            -22.4289   ZZ=            -26.8884
   XY=              2.7539   XZ=             -0.0001   YZ=              0.0000

  Exact polarizability:  45.308   0.232  43.927   0.000   0.001  23.728
 Approx polarizability:  87.521  11.597 134.023   0.000   0.007  33.925

                     1                      2                      3
                     A                      A                      A
 Frequencies --   245.5723               639.6770               645.7784
 Red. masses --    10.9645                 1.6962                 8.3405
 Frc consts  --     0.3896                 0.4089                 2.0493
 IR Inten    --    14.0696                79.0499                95.1436

                     4                      5                      6
                     A                      A                      A
 Frequencies --   707.7166               719.2592               768.4626
 Red. masses --     2.5732                 7.2618                 1.1543
 Frc consts  --     0.7594                 2.2134                 0.4016
 IR Inten    --    29.5032                11.3672                17.9355

                     7                      8                      9
                     A                      A                      A
 Frequencies --   960.9384              1012.3585              1142.1413
 Red. masses --     7.5274                 2.9552                 1.7998
 Frc consts  --     4.0953                 1.7844                 1.3833
 IR Inten    --    14.9795                 2.0052                 8.9865

                    10                     11                     12
                     A                      A                      A
 Frequencies --  1148.0708              1270.1189              1442.9065
 Red. masses --     2.3791                 5.5206                 1.9172
 Frc consts  --     1.8475                 5.2472                 2.3518
 IR Inten    --    19.8447                 6.1902                35.9206

                    13                     14                     15
                     A                      A                      A
 Frequencies --  1666.2110              3304.9117              3525.7443
 Red. masses --     8.0719                 1.1153                 1.0869
 Frc consts  --    13.2034                 7.1775                 7.9602
 IR Inten    --     4.1550               114.4352               301.3343

 - Thermochemistry -
 -------------------
 Temperature   298.150 Kelvin.  Pressure   1.00000 Atm.
 Atom     1 has atomic number  6 and mass  12.00000

 Molecular mass:    68.02487 amu.
 Principal axes and moments of inertia in atomic units:
                           1         2         3
     Eigenvalues --   133.89709 210.09835 343.99544
           X            0.99915   0.04126   0.00000
           Y           -0.04126   0.99915   0.00000
           Z            0.00000   0.00000   1.00000
 This molecule is an asymmetric top.
 Rotational symmetry number  1.
 Rotational temperatures (Kelvin)      0.64687     0.41225     0.25179
 Rotational constants (GHZ):          13.47857     8.58998     5.24641
 Zero-point vibrational energy     114840.7 (Joules/Mol)
                                   27.44759 (Kcal/Mol)
 Warning -- explicit consideration of   1 degrees of freedom as
           vibrations may cause significant error
 Vibrational temperatures:    353.32   920.35   929.13  1018.25  1034.85
          (Kelvin)           1105.64  1382.57  1456.56  1643.28  1651.82
                             1827.42  2076.02  2397.30  4755.02  5072.75

 Zero-point correction=                           0.043741 (Hartree/Particle)
 Thermal correction to Energy=                    0.047785
 Thermal correction to Enthalpy=                  0.048730
 Thermal correction to Gibbs Free Energy=         0.017347
 Sum of electronic and zero-point Energies=           -241.132443
 Sum of electronic and thermal Energies=              -241.128398
 Sum of electronic and thermal Enthalpies=            -241.127454
 Sum of electronic and thermal Free Energies=         -241.158837

                     E (Thermal)             CV                S
                      KCal/Mol        Cal/Mol-Kelvin    Cal/Mol-Kelvin
 Total                   29.986             13.498             66.050
 Electronic               0.000              0.000              0.000
 Translational            0.889              2.981             38.570
 Rotational               0.889              2.981             23.785
 Vibrational             28.208              7.536              3.695
 Vibration     1          0.660              1.770              1.762

 Optimization completed.
    -- Stationary point found.
 Normal termination of Gaussian 09 at Wed Apr 11 23:40:07 2018.
