 Gaussian 09, Revision B.01,
 Gaussian 09:  EM64L-G09RevB.01 12-Aug-2010

 ----------------------------------------------------------------------
 #p Temperature=298.15 opt=(maxcycles=1024) SCF=(maxcycles=1024) freq U
 B3LYP/aug-cc-pVDZ
 ----------------------------------------------------------------------

 --------------------------------------------------
 1H-1,2,3-Triazole-4-N2+-UB3LYP-aug-cc-pVDZ-Triplet
 --------------------------------------------------
 Symbolic Z-matrix:
 Charge =  1 Multiplicity = 3

 SCF Done:  E(UB3LYP) =  -350.689508647     A.U. after   26 cycles
 SCF Done:  E(UB3LYP) =  -350.715483533     A.U. after   21 cycles
 SCF Done:  E(UB3LYP) =  -350.719034262     A.U. after   21 cycles
 SCF Done:  E(UB3LYP) =  -350.719404549     A.U. after   21 cycles
 SCF Done:  E(UB3LYP) =  -350.719479161     A.U. after   20 cycles
 SCF Done:  E(UB3LYP) =  -350.719494324     A.U. after   20 cycles
 SCF Done:  E(UB3LYP) =  -350.719511815     A.U. after   19 cycles
 SCF Done:  E(UB3LYP) =  -350.719516599     A.U. after   19 cycles
 SCF Done:  E(UB3LYP) =  -350.719518421     A.U. after   19 cycles
 SCF Done:  E(UB3LYP) =  -350.719521181     A.U. after   20 cycles
 SCF Done:  E(UB3LYP) =  -350.741760149     A.U. after   17 cycles
 SCF Done:  E(UB3LYP) =  -350.742148473     A.U. after   20 cycles
 SCF Done:  E(UB3LYP) =  -350.742207397     A.U. after   17 cycles
 SCF Done:  E(UB3LYP) =  -350.742205242     A.U. after   19 cycles
 SCF Done:  E(UB3LYP) =  -350.742220012     A.U. after   19 cycles
 SCF Done:  E(UB3LYP) =  -350.742222431     A.U. after   25 cycles
 SCF Done:  E(UB3LYP) =  -350.742225554     A.U. after   17 cycles
 SCF Done:  E(UB3LYP) =  -350.742227903     A.U. after   16 cycles
 SCF Done:  E(UB3LYP) =  -350.742228664     A.U. after   16 cycles
 Optimization completed.
    -- Stationary point found.
 Normal termination of Gaussian 09 at Wed Apr 11 23:04:22 2018.

 ----------------------------------------------------------------------
 #P Geom=AllCheck Guess=TCheck SCRF=Check GenChk UB3LYP/Aug-CC-pVDZ Fre
 q
 ----------------------------------------------------------------------

 1H-1,2,3-Triazole-4-N2+-UB3LYP-aug-cc-pVDZ-Triplet
 --------------------------------------------------
 Redundant internal coordinates taken from checkpoint file:
 /home/ubuntu/g09/Gau-10073.chk
 Charge =  1 Multiplicity = 3

                         Standard orientation:
 ---------------------------------------------------------------------
 Center     Atomic      Atomic             Coordinates (Angstroms)
 Number     Number       Type             X           Y           Z
 ---------------------------------------------------------------------
      1          7           0        1.710650   -0.500926    0.001165
      2          7           0        2.536987    0.380163   -0.001196
      3          6           0        0.358686   -0.204623    0.000363
      4          7           0       -1.587634    0.770476   -0.000040
      5          1           0       -2.421207    1.361970    0.000091
      6          6           0       -0.335326    1.089863    0.000385
      7          1           0        0.070289    2.100786    0.000662
      8          7           0       -1.750628   -0.701939   -0.000517
      9          7           0       -0.593552   -1.201231   -0.000161
 ---------------------------------------------------------------------

 SCF Done:  E(UB3LYP) =  -350.742228664     A.U. after    1 cycles

 The electronic state is 3-A.
 Alpha  occ. eigenvalues --  -14.69604 -14.69288 -14.65441 -14.64698 -14.64025
 Alpha  occ. eigenvalues --  -10.56650 -10.54894  -1.37425  -1.31239  -1.20875
 Alpha  occ. eigenvalues --   -1.09699  -0.97285  -0.91501  -0.87313  -0.81785
 Alpha  occ. eigenvalues --   -0.75283  -0.74254  -0.70017  -0.67374  -0.64066
 Alpha  occ. eigenvalues --   -0.61881  -0.60745  -0.54495  -0.54136  -0.45087
 Alpha virt. eigenvalues --   -0.32140  -0.28902  -0.20229  -0.18643  -0.17240
 Alpha virt. eigenvalues --   -0.14935  -0.13338  -0.11604  -0.09521  -0.08205
 Alpha virt. eigenvalues --   -0.07029  -0.06713  -0.05412  -0.05115  -0.04887

  Beta  occ. eigenvalues --  -14.69490 -14.68612 -14.65235 -14.64314 -14.62503
  Beta  occ. eigenvalues --  -10.55549 -10.54681  -1.36623  -1.28843  -1.20647
  Beta  occ. eigenvalues --   -1.07108  -0.95572  -0.90482  -0.86554  -0.80905
  Beta  occ. eigenvalues --   -0.73323  -0.72709  -0.65678  -0.64819  -0.61640
  Beta  occ. eigenvalues --   -0.59817  -0.59431  -0.54055
  Beta virt. eigenvalues --   -0.43921  -0.29121  -0.28900  -0.26282  -0.18477
  Beta virt. eigenvalues --   -0.16939  -0.16606  -0.14572  -0.13096  -0.11397
  Beta virt. eigenvalues --   -0.09123  -0.08046  -0.06762  -0.06542  -0.04979

 Mulliken atomic charges:
              1
     1  N    0.176347
     2  N   -0.325473
     3  C    0.500983
     4  N    0.043899
     5  H   -0.015919
     6  C    1.151302
     7  H   -0.318796
     8  N   -0.077863
     9  N   -0.134479
 Sum of Mulliken atomic charges =   1.00000

 Dipole moment (field-independent basis, Debye):
    X=             -2.9316    Y=              5.0128    Z=              0.0020  Tot=              5.8071
 Quadrupole moment (field-independent basis, Debye-Ang):
   XX=            -26.6600   YY=            -30.4650   ZZ=            -35.5508
   XY=             -6.5329   XZ=              0.0006   YZ=              0.0051

  Exact polarizability:  79.290   1.705  51.557  -0.001  -0.004  30.081
 Approx polarizability: 136.175   7.900  88.762  -0.001  -0.015  46.481

                     1                      2                      3
                     A                      A                      A
 Frequencies --    47.0310               229.0766               229.6455
 Red. masses --    11.1126                 7.5230                 7.6645
 Frc consts  --     0.0145                 0.2326                 0.2381
 IR Inten    --     3.5787                 4.1434                 6.0906

                     4                      5                      6
                     A                      A                      A
 Frequencies --   460.1624               508.2536               516.2962
 Red. masses --     6.1987                11.0289                 6.7132
 Frc consts  --     0.7733                 1.6786                 1.0543
 IR Inten    --     0.0484                 1.8269                30.9397

                     7                      8                      9
                     A                      A                      A
 Frequencies --   639.0790               653.8231               763.9793
 Red. masses --     3.4796                10.6479                 1.3422
 Frc consts  --     0.8373                 2.6818                 0.4616
 IR Inten    --     8.6048                 3.3811                99.4831

                    10                     11                     12
                     A                      A                      A
 Frequencies --   880.8788               943.8613               949.1380
 Red. masses --     5.6721                 1.3826                 5.4929
 Frc consts  --     2.5931                 0.7257                 2.9155
 IR Inten    --    14.7677                 0.3478                18.9483

                    13                     14                     15
                     A                      A                      A
 Frequencies --  1112.0190              1167.0118              1252.7232
 Red. masses --     1.2791                10.2414                 2.5034
 Frc consts  --     0.9319                 8.2179                 2.3146
 IR Inten    --     9.8045                44.0273                34.3462

                    16                     17                     18
                     A                      A                      A
 Frequencies --  1380.3149              1431.2309              1590.5965
 Red. masses --     2.6106                 5.4656                 6.4337
 Frc consts  --     2.9306                 6.5964                 9.5902
 IR Inten    --    83.1892                 4.1772                22.6869

                    19                     20                     21
                     A                      A                      A
 Frequencies --  1646.3257              3243.0800              3522.1322
 Red. masses --    13.7601                 1.1040                 1.0879
 Frc consts  --    21.9737                 6.8412                 7.9512
 IR Inten    --    61.9923                60.0509               295.5707

 - Thermochemistry -
 -------------------
 Temperature   298.150 Kelvin.  Pressure   1.00000 Atm.
 Atom     1 has atomic number  7 and mass  14.00307

 Molecular mass:    96.03102 amu.
 Principal axes and moments of inertia in atomic units:
                           1         2         3
     Eigenvalues --   220.84115 796.574781017.41559
           X            0.99980  -0.01992   0.00000
           Y            0.01992   0.99980   0.00002
           Z            0.00000  -0.00002   1.00000
 This molecule is an asymmetric top.
 Rotational symmetry number  1.
 Rotational temperatures (Kelvin)      0.39220     0.10873     0.08513
 Rotational constants (GHZ):           8.17212     2.26563     1.77385
 Zero-point vibrational energy     138567.4 (Joules/Mol)
                                   33.11840 (Kcal/Mol)
 Warning -- explicit consideration of   6 degrees of freedom as
           vibrations may cause significant error
 Vibrational temperatures:     67.67   329.59   330.41   662.07   731.26
          (Kelvin)            742.83   919.49   940.70  1099.19  1267.39
                             1358.00  1365.60  1599.95  1679.07  1802.39
                             1985.96  2059.22  2288.51  2368.69  4666.06
                             5067.56

 Zero-point correction=                           0.052778 (Hartree/Particle)
 Thermal correction to Energy=                    0.058757
 Thermal correction to Enthalpy=                  0.059701
 Thermal correction to Gibbs Free Energy=         0.021331
 Sum of electronic and zero-point Energies=           -350.689451
 Sum of electronic and thermal Energies=              -350.683472
 Sum of electronic and thermal Enthalpies=            -350.682528
 Sum of electronic and thermal Free Energies=         -350.720898

                     E (Thermal)             CV                S
                      KCal/Mol        Cal/Mol-Kelvin    Cal/Mol-Kelvin
 Total                   36.870             20.282             80.757
 Electronic               0.000              0.000              2.183
 Translational            0.889              2.981             39.597
 Rotational               0.889              2.981             26.684
 Vibrational             35.093             14.321             12.292
 Vibration     1          0.595              1.979              4.938
 Vibration     2          0.652              1.797              1.886
 Vibration     3          0.652              1.796              1.882
 Vibration     4          0.818              1.338              0.766
 Vibration     5          0.863              1.232              0.638
 Vibration     6          0.871              1.214              0.619

 Normal termination of Gaussian 09 at Wed Apr 11 23:06:47 2018.
