 Gaussian 09, Revision B.01,
 Gaussian 09:  EM64L-G09RevB.01 12-Aug-2010

 ----------------------------------------------------------------------
 #p Temperature=298.15 opt=(maxcycles=1024) SCF=(maxcycles=1024) freq U
 B3LYP/aug-cc-pVDZ
 ----------------------------------------------------------------------

 --------------------------------------------------
 1H-1,2,3-Triazole-4-N2+-UB3LYP-aug-cc-pVDZ-Singlet
 --------------------------------------------------
 Symbolic Z-matrix:
 Charge =  1 Multiplicity = 1

 SCF Done:  E(UB3LYP) =  -350.809630573     A.U. after   14 cycles
 SCF Done:  E(UB3LYP) =  -350.837237428     A.U. after   13 cycles
 SCF Done:  E(UB3LYP) =  -350.839869766     A.U. after   12 cycles
 SCF Done:  E(UB3LYP) =  -350.840054716     A.U. after   12 cycles
 SCF Done:  E(UB3LYP) =  -350.839942701     A.U. after   15 cycles
 SCF Done:  E(UB3LYP) =  -350.840099005     A.U. after   15 cycles
 SCF Done:  E(UB3LYP) =  -350.840104630     A.U. after   10 cycles
 SCF Done:  E(UB3LYP) =  -350.840103497     A.U. after   10 cycles
 SCF Done:  E(UB3LYP) =  -350.840108578     A.U. after   10 cycles
 SCF Done:  E(UB3LYP) =  -350.840109164     A.U. after   17 cycles
 Optimization completed.
    -- Stationary point found.
 Normal termination of Gaussian 09 at Wed Apr 11 22:34:29 2018.

 ----------------------------------------------------------------------
 #P Geom=AllCheck Guess=TCheck SCRF=Check GenChk UB3LYP/Aug-CC-pVDZ Fre
 q
 ----------------------------------------------------------------------

 1H-1,2,3-Triazole-4-N2+-UB3LYP-aug-cc-pVDZ-Singlet
 --------------------------------------------------
 Redundant internal coordinates taken from checkpoint file:
 /home/ubuntu/g09/Gau-8974.chk
 Charge =  1 Multiplicity = 1

                         Standard orientation:
 ---------------------------------------------------------------------
 Center     Atomic      Atomic             Coordinates (Angstroms)
 Number     Number       Type             X           Y           Z
 ---------------------------------------------------------------------
      1          7           0       -1.666320    0.048697    0.000162
      2          7           0       -2.779474   -0.000821    0.000130
      3          6           0       -0.307545    0.041814    0.000067
      4          7           0        1.754705    0.510870    0.000369
      5          1           0        2.685043    0.926662    0.001172
      6          6           0        0.569948    1.125825   -0.000568
      7          1           0        0.423638    2.201502   -0.000544
      8          7           0        1.634508   -0.856160   -0.000011
      9          7           0        0.387567   -1.150301   -0.000310
 ---------------------------------------------------------------------

 SCF Done:  E(UB3LYP) =  -350.840109164     A.U. after    1 cycles

 The electronic state is 1-A.
 Alpha  occ. eigenvalues --  -14.75929 -14.72458 -14.65853 -14.63208 -14.60728
 Alpha  occ. eigenvalues --  -10.52462 -10.50168  -1.41243  -1.34387  -1.16058
 Alpha  occ. eigenvalues --   -1.12396  -0.99240  -0.89389  -0.84081  -0.77992
 Alpha  occ. eigenvalues --   -0.76640  -0.74960  -0.72217  -0.69784  -0.69490
 Alpha  occ. eigenvalues --   -0.57784  -0.55114  -0.51949  -0.50920
 Alpha virt. eigenvalues --   -0.32138  -0.31717  -0.24021  -0.16819  -0.16500
 Alpha virt. eigenvalues --   -0.15108  -0.12466  -0.11414  -0.10729  -0.09124
 Alpha virt. eigenvalues --   -0.08725  -0.06401  -0.06063  -0.05202  -0.03793

  Beta  occ. eigenvalues --  -14.75929 -14.72458 -14.65853 -14.63208 -14.60728
  Beta  occ. eigenvalues --  -10.52462 -10.50168  -1.41243  -1.34387  -1.16058
  Beta  occ. eigenvalues --   -1.12396  -0.99240  -0.89389  -0.84081  -0.77992
  Beta  occ. eigenvalues --   -0.76640  -0.74960  -0.72217  -0.69784  -0.69490
  Beta  occ. eigenvalues --   -0.57784  -0.55114  -0.51949  -0.50920
  Beta virt. eigenvalues --   -0.32138  -0.31717  -0.24021  -0.16819  -0.16500
  Beta virt. eigenvalues --   -0.15108  -0.12466  -0.11414  -0.10729  -0.09124
  Beta virt. eigenvalues --   -0.08725  -0.06401  -0.06063  -0.05202  -0.03793

 Mulliken atomic charges:
              1
     1  N    0.590682
     2  N   -0.413420
     3  C    0.645272
     4  N    0.056868
     5  H   -0.030949
     6  C    0.887812
     7  H   -0.423585
     8  N   -0.112501
     9  N   -0.200179
 Sum of Mulliken atomic charges =   1.00000

 Dipole moment (field-independent basis, Debye):
    X=             -0.3250    Y=              4.9033    Z=              0.0013  Tot=              4.9141
 Quadrupole moment (field-independent basis, Debye-Ang):
   XX=            -17.5509   YY=            -31.9663   ZZ=            -36.5236
   XY=              6.0709   XZ=              0.0044   YZ=             -0.0005

  Exact polarizability:  89.276   1.627  49.092   0.001  -0.002  29.958
 Approx polarizability: 181.200   3.493  84.402   0.003  -0.006  45.629

                     1                      2                      3
                     A                      A                      A
 Frequencies --   179.3584               184.5448               511.0820
 Red. masses --     8.6151                 8.8445                11.1300
 Frc consts  --     0.1633                 0.1775                 1.7129
 IR Inten    --     0.2754                 4.4843                 1.3514

                     4                      5                      6
                     A                      A                      A
 Frequencies --   531.2313               591.5504               617.1451
 Red. masses --     9.4649                10.8033                 4.0645
 Frc consts  --     1.5737                 2.2274                 0.9121
 IR Inten    --     0.0367                 7.3224                 5.6991

                     7                      8                      9
                     A                      A                      A
 Frequencies --   692.4638               733.7448               879.7889
 Red. masses --    13.1889                 1.1339                 1.3809
 Frc consts  --     3.7261                 0.3597                 0.6297
 IR Inten    --     0.2521               103.6647                 5.4503

                    10                     11                     12
                     A                      A                      A
 Frequencies --   941.8531               976.0950              1012.6315
 Red. masses --     4.5273                 5.5639                 6.2226
 Frc consts  --     2.3662                 3.1233                 3.7595
 IR Inten    --     1.6862                 1.0613                23.3212

                    13                     14                     15
                     A                      A                      A
 Frequencies --  1122.8865              1216.7590              1327.8222
 Red. masses --     1.4491                 8.9344                 2.0676
 Frc consts  --     1.0765                 7.7934                 2.1478
 IR Inten    --    56.9819                63.7762                48.4332

                    16                     17                     18
                     A                      A                      A
 Frequencies --  1394.0105              1487.0351              1538.6064
 Red. masses --     6.4261                 5.0801                 3.2641
 Frc consts  --     7.3575                 6.6186                 4.5527
 IR Inten    --     2.4846                47.0814                20.2385

                    19                     20                     21
                     A                      A                      A
 Frequencies --  2350.9354              3274.8822              3558.7365
 Red. masses --    13.9847                 1.1051                 1.0861
 Frc consts  --    45.5390                 6.9828                 8.1040
 IR Inten    --   182.1820                44.1970               272.0661

 - Thermochemistry -
 -------------------
 Temperature   298.150 Kelvin.  Pressure   1.00000 Atm.
 Atom     1 has atomic number  7 and mass  14.00307

 Molecular mass:    96.03102 amu.
 Principal axes and moments of inertia in atomic units:
                           1         2         3
     Eigenvalues --   190.32470 864.685771055.01041
           X            0.99983   0.01852   0.00001
           Y           -0.01852   0.99983   0.00000
           Z           -0.00001   0.00000   1.00000
 This molecule is an asymmetric top.
 Rotational symmetry number  1.
 Rotational temperatures (Kelvin)      0.45508     0.10017     0.08210
 Rotational constants (GHZ):           9.48243     2.08716     1.71064
 Zero-point vibrational energy     150269.9 (Joules/Mol)
                                   35.91536 (Kcal/Mol)
 Warning -- explicit consideration of   6 degrees of freedom as
           vibrations may cause significant error
 Vibrational temperatures:    258.06   265.52   735.33   764.32   851.11
          (Kelvin)            887.93   996.30  1055.69  1265.82  1355.11
                             1404.38  1456.95  1615.58  1750.64  1910.44
                             2005.67  2139.51  2213.71  3382.47  4711.82
                             5120.22

 Zero-point correction=                           0.057235 (Hartree/Particle)
 Thermal correction to Energy=                    0.062441
 Thermal correction to Enthalpy=                  0.063385
 Thermal correction to Gibbs Free Energy=         0.028142
 Sum of electronic and zero-point Energies=           -350.782874
 Sum of electronic and thermal Energies=              -350.777668
 Sum of electronic and thermal Enthalpies=            -350.776724
 Sum of electronic and thermal Free Energies=         -350.811967

                     E (Thermal)             CV                S
                      KCal/Mol        Cal/Mol-Kelvin    Cal/Mol-Kelvin
 Total                   39.182             18.338             74.175
 Electronic               0.000              0.000              0.000
 Translational            0.889              2.981             39.597
 Rotational               0.889              2.981             26.654
 Vibrational             37.405             12.376              7.924
 Vibration     1          0.629              1.868              2.335
 Vibration     2          0.631              1.861              2.282
 Vibration     3          0.866              1.225              0.631
 Vibration     4          0.886              1.181              0.584
 Vibration     5          0.949              1.050              0.464
 Vibration     6          0.977              0.996              0.421

 Optimization completed.
    -- Stationary point found.
 Normal termination of Gaussian 09 at Wed Apr 11 22:36:46 2018.
