 Gaussian 09, Revision B.01,
 Gaussian 09:  EM64L-G09RevB.01 12-Aug-2010

 ----------------------------------------------------------------------
 #p Temperature=298.15 opt=(maxcycles=1024) SCF=(maxcycles=1024) freq U
 B3LYP/aug-cc-pVDZ
 ----------------------------------------------------------------------

 -----------------------------------------------
 1H-1,2,4-Triazole-3+-UB3LYP-aug-cc-pVDZ-Singlet
 -----------------------------------------------
 Symbolic Z-matrix:
 Charge =  1 Multiplicity = 1

 SCF Done:  E(UB3LYP) =  -241.134581284     A.U. after   26 cycles
 SCF Done:  E(UB3LYP) =  -241.188822228     A.U. after   18 cycles
 SCF Done:  E(UB3LYP) =  -241.216068141     A.U. after   14 cycles
 SCF Done:  E(UB3LYP) =  -241.221902445     A.U. after   14 cycles
 SCF Done:  E(UB3LYP) =  -241.223911751     A.U. after   14 cycles
 SCF Done:  E(UB3LYP) =  -241.224090088     A.U. after   11 cycles
 SCF Done:  E(UB3LYP) =  -241.224058914     A.U. after   14 cycles
 SCF Done:  E(UB3LYP) =  -241.224099091     A.U. after   11 cycles
 SCF Done:  E(UB3LYP) =  -241.224105068     A.U. after   10 cycles
 Optimization completed.
    -- Stationary point found.
 Normal termination of Gaussian 09 at Thu Apr 12 00:48:15 2018.

 ----------------------------------------------------------------------
 #P Geom=AllCheck Guess=TCheck SCRF=Check GenChk UB3LYP/Aug-CC-pVDZ Fre
 q
 ----------------------------------------------------------------------

 1H-1,2,4-Triazole-3+-UB3LYP-aug-cc-pVDZ-Singlet
 -----------------------------------------------
 Redundant internal coordinates taken from checkpoint file:
 /home/ubuntu/g09/Gau-8891.chk
 Charge =  1 Multiplicity = 1

                         Standard orientation:
 ---------------------------------------------------------------------
 Center     Atomic      Atomic             Coordinates (Angstroms)
 Number     Number       Type             X           Y           Z
 ---------------------------------------------------------------------
      1          6           0        0.035139   -0.997523    0.000061
      2          6           0        0.699632    0.791258   -0.000006
      3          1           0        1.328290    1.680354    0.000018
      4          7           0       -0.662007    0.768695    0.000014
      5          1           0       -1.341244    1.533697    0.000025
      6          7           0       -1.147174   -0.550144   -0.000040
      7          7           0        1.181227   -0.500903   -0.000028
 ---------------------------------------------------------------------

 SCF Done:  E(UB3LYP) =  -241.224105068     A.U. after    1 cycles

 The electronic state is 1-A.
 Alpha  occ. eigenvalues --  -14.71253 -14.66936 -14.65527 -10.61611 -10.57012
 Alpha  occ. eigenvalues --   -1.39743  -1.23336  -1.13104  -0.94493  -0.86874
 Alpha  occ. eigenvalues --   -0.84309  -0.76443  -0.73651  -0.64922  -0.60909
 Alpha  occ. eigenvalues --   -0.60153  -0.56259
 Alpha virt. eigenvalues --   -0.42594  -0.28939  -0.22211  -0.18244  -0.14727
 Alpha virt. eigenvalues --   -0.13126  -0.12304  -0.11408  -0.09457  -0.09146
 Alpha virt. eigenvalues --   -0.07013  -0.06405  -0.04671  -0.04498  -0.03198

  Beta  occ. eigenvalues --  -14.71253 -14.66936 -14.65527 -10.61611 -10.57012
  Beta  occ. eigenvalues --   -1.39743  -1.23336  -1.13104  -0.94493  -0.86874
  Beta  occ. eigenvalues --   -0.84309  -0.76443  -0.73651  -0.64922  -0.60909
  Beta  occ. eigenvalues --   -0.60153  -0.56259
  Beta virt. eigenvalues --   -0.42594  -0.28939  -0.22211  -0.18244  -0.14727
  Beta virt. eigenvalues --   -0.13126  -0.12304  -0.11408  -0.09457  -0.09146
  Beta virt. eigenvalues --   -0.07013  -0.06405  -0.04671  -0.04498  -0.03198

 Mulliken atomic charges:
              1
     1  C    0.243314
     2  C    0.828023
     3  H   -0.126409
     4  N    0.030491
     5  H    0.000971
     6  N    0.049868
     7  N   -0.026259
 Sum of Mulliken atomic charges =   1.00000

 Dipole moment (field-independent basis, Debye):
    X=             -0.1423    Y=              2.1738    Z=              0.0001  Tot=              2.1784
 Quadrupole moment (field-independent basis, Debye-Ang):
   XX=            -23.4554   YY=            -13.6916   ZZ=            -26.4975
   XY=             -0.9664   XZ=             -0.0001   YZ=              0.0000

  Exact polarizability:  42.265   1.240  37.914   0.000  -0.001  21.945
 Approx polarizability:  85.025   2.907  67.664   0.000  -0.001  31.762

                     1                      2                      3
                     A                      A                      A
 Frequencies --   385.6394               554.7791               670.0714
 Red. masses --     6.5566                 4.6348                 1.2562
 Frc consts  --     0.5745                 0.8405                 0.3323
 IR Inten    --    31.0808                34.7776                55.3355

                     4                      5                      6
                     A                      A                      A
 Frequencies --   745.6354               815.0458               833.6530
 Red. masses --    12.1647                10.6592                 1.3139
 Frc consts  --     3.9848                 4.1719                 0.5380
 IR Inten    --    29.8719                18.8402                13.2981

                     7                      8                      9
                     A                      A                      A
 Frequencies --  1047.0372              1126.6125              1192.0510
 Red. masses --     3.0850                 2.0139                 4.2000
 Frc consts  --     1.9927                 1.5060                 3.5163
 IR Inten    --     2.3935                17.1903                50.6081

                    10                     11                     12
                     A                      A                      A
 Frequencies --  1281.1526              1346.8944              1447.9375
 Red. masses --     1.8591                 7.2074                 1.9268
 Frc consts  --     1.7978                 7.7036                 2.3801
 IR Inten    --    51.5225                38.9966                32.6292

                    13                     14                     15
                     A                      A                      A
 Frequencies --  1683.9695              3243.3809              3511.3861
 Red. masses --     9.6540                 1.1032                 1.0862
 Frc consts  --    16.1297                 6.8374                 7.8906
 IR Inten    --   178.3376                58.8400               252.9037

 - Thermochemistry -
 -------------------
 Temperature   298.150 Kelvin.  Pressure   1.00000 Atm.
 Atom     1 has atomic number  6 and mass  12.00000

 Molecular mass:    68.02487 amu.
 Principal axes and moments of inertia in atomic units:
                           1         2         3
     Eigenvalues --   144.78526 191.35782 336.14308
           X            0.99991   0.01338   0.00000
           Y           -0.01338   0.99991   0.00000
           Z            0.00000   0.00000   1.00000
 This molecule is an asymmetric top.
 Rotational symmetry number  1.
 Rotational temperatures (Kelvin)      0.59822     0.45263     0.25767
 Rotational constants (GHZ):          12.46495     9.43124     5.36897
 Zero-point vibrational energy     118940.2 (Joules/Mol)
                                   28.42739 (Kcal/Mol)
 Warning -- explicit consideration of   2 degrees of freedom as
           vibrations may cause significant error
 Vibrational temperatures:    554.85   798.20   964.08  1072.80  1172.67
          (Kelvin)           1199.44  1506.45  1620.94  1715.09  1843.29
                             1937.88  2083.26  2422.85  4666.50  5052.10

 Zero-point correction=                           0.045302 (Hartree/Particle)
 Thermal correction to Energy=                    0.049109
 Thermal correction to Enthalpy=                  0.050053
 Thermal correction to Gibbs Free Energy=         0.019125
 Sum of electronic and zero-point Energies=           -241.178803
 Sum of electronic and thermal Energies=              -241.174996
 Sum of electronic and thermal Enthalpies=            -241.174052
 Sum of electronic and thermal Free Energies=         -241.204980

                     E (Thermal)             CV                S
                      KCal/Mol        Cal/Mol-Kelvin    Cal/Mol-Kelvin
 Total                   30.816             12.656             65.093
 Electronic               0.000              0.000              0.000
 Translational            0.889              2.981             38.570
 Rotational               0.889              2.981             23.747
 Vibrational             29.039              6.695              2.776
 Vibration     1          0.754              1.501              1.017
 Vibration     2          0.910              1.129              0.534

 Optimization completed.
    -- Stationary point found.
 Normal termination of Gaussian 09 at Thu Apr 12 00:49:07 2018.
