 Gaussian 09, Revision B.01,
 Gaussian 09:  EM64L-G09RevB.01 12-Aug-2010

 ----------------------------------------------------------------------
 #p Temperature=298.15 opt=(maxcycles=1024) SCF=(maxcycles=1024) freq U
 B3LYP/aug-cc-pVDZ
 ----------------------------------------------------------------------

 --------------------------------------------------
 1H-1,2,4-Triazole-5-N2+-UB3LYP-aug-cc-pVDZ-Singlet
 --------------------------------------------------
 Symbolic Z-matrix:
 Charge =  1 Multiplicity = 1

 SCF Done:  E(UB3LYP) =  -350.810371688     A.U. after   17 cycles
 SCF Done:  E(UB3LYP) =  -350.841125616     A.U. after   12 cycles
 SCF Done:  E(UB3LYP) =  -350.843888667     A.U. after   15 cycles
 SCF Done:  E(UB3LYP) =  -350.843677695     A.U. after   15 cycles
 SCF Done:  E(UB3LYP) =  -350.844148951     A.U. after   15 cycles
 SCF Done:  E(UB3LYP) =  -350.844260162     A.U. after   15 cycles
 SCF Done:  E(UB3LYP) =  -350.844261450     A.U. after   10 cycles
 SCF Done:  E(UB3LYP) =  -350.844266252     A.U. after   16 cycles
 SCF Done:  E(UB3LYP) =  -350.844270482     A.U. after   16 cycles
 SCF Done:  E(UB3LYP) =  -350.844270655     A.U. after   16 cycles
 Optimization completed.
    -- Stationary point found.
 Normal termination of Gaussian 09 at Thu Apr 12 01:01:57 2018.

 ----------------------------------------------------------------------
 #P Geom=AllCheck Guess=TCheck SCRF=Check GenChk UB3LYP/Aug-CC-pVDZ Fre
 q
 ----------------------------------------------------------------------

 1H-1,2,4-Triazole-5-N2+-UB3LYP-aug-cc-pVDZ-Singlet
 --------------------------------------------------
 Redundant internal coordinates taken from checkpoint file:
 /home/ubuntu/g09/Gau-11806.chk
 Charge =  1 Multiplicity = 1

                         Standard orientation:
 ---------------------------------------------------------------------
 Center     Atomic      Atomic             Coordinates (Angstroms)
 Number     Number       Type             X           Y           Z
 ---------------------------------------------------------------------
      1          7           0       -1.634976   -0.029739   -0.000031
      2          7           0       -2.750018   -0.035714    0.000013
      3          6           0       -0.269760   -0.049056   -0.000071
      4          6           0        1.705853   -0.676168   -0.000088
      5          1           0        2.594527   -1.299543    0.000615
      6          7           0        0.517814    1.067877    0.000107
      7          1           0        0.278750    2.058629    0.000261
      8          7           0        1.778363    0.673287   -0.000121
      9          7           0        0.447412   -1.162530    0.000043
 ---------------------------------------------------------------------

 SCF Done:  E(UB3LYP) =  -350.844270655     A.U. after    1 cycles

 The electronic state is 1-A.
 Alpha  occ. eigenvalues --  -14.77447 -14.74309 -14.67991 -14.61197 -14.58520
 Alpha  occ. eigenvalues --  -10.56744 -10.47074  -1.42850  -1.34089  -1.17253
 Alpha  occ. eigenvalues --   -1.12792  -1.01446  -0.88048  -0.86992  -0.78357
 Alpha  occ. eigenvalues --   -0.77329  -0.74753  -0.73341  -0.70252  -0.66416
 Alpha  occ. eigenvalues --   -0.57408  -0.55494  -0.52137  -0.51371
 Alpha virt. eigenvalues --   -0.34442  -0.33447  -0.21043  -0.18113  -0.17412
 Alpha virt. eigenvalues --   -0.13828  -0.12781  -0.11235  -0.11072  -0.09388
 Alpha virt. eigenvalues --   -0.08373  -0.06380  -0.05747  -0.04594  -0.04339

  Beta  occ. eigenvalues --  -14.77447 -14.74309 -14.67991 -14.61197 -14.58520
  Beta  occ. eigenvalues --  -10.56744 -10.47074  -1.42850  -1.34089  -1.17253
  Beta  occ. eigenvalues --   -1.12792  -1.01446  -0.88048  -0.86992  -0.78357
  Beta  occ. eigenvalues --   -0.77329  -0.74753  -0.73341  -0.70252  -0.66416
  Beta  occ. eigenvalues --   -0.57408  -0.55494  -0.52137  -0.51371
  Beta virt. eigenvalues --   -0.34442  -0.33447  -0.21043  -0.18113  -0.17412
  Beta virt. eigenvalues --   -0.13828  -0.12781  -0.11235  -0.11072  -0.09388
  Beta virt. eigenvalues --   -0.08373  -0.06380  -0.05747  -0.04594  -0.04339

 Mulliken atomic charges:
              1
     1  N    0.571444
     2  N   -0.364914
     3  C    0.424196
     4  C    0.832699
     5  H   -0.230175
     6  N    0.202123
     7  H   -0.035065
     8  N   -0.217852
     9  N   -0.182457
 Sum of Mulliken atomic charges =   1.00000

 Dipole moment (field-independent basis, Debye):
    X=             -2.2801    Y=              2.1535    Z=              0.0007  Tot=              3.1363
 Quadrupole moment (field-independent basis, Debye-Ang):
   XX=            -22.0171   YY=            -30.3674   ZZ=            -36.3420
   XY=             -4.2622   XZ=              0.0018   YZ=              0.0004

  Exact polarizability:  94.765   0.112  48.402  -0.001   0.000  29.861
 Approx polarizability: 205.569   7.070  86.189  -0.005   0.001  45.442

                     1                      2                      3
                     A                      A                      A
 Frequencies --   173.2056               182.2158               481.5595
 Red. masses --     8.1774                 8.9185                10.4785
 Frc consts  --     0.1445                 0.1745                 1.4317
 IR Inten    --     0.5970                 1.1302                 0.1707

                     4                      5                      6
                     A                      A                      A
 Frequencies --   525.6940               600.3865               620.3537
 Red. masses --     9.9854                11.4786                 3.3707
 Frc consts  --     1.6259                 2.4378                 0.7643
 IR Inten    --     0.1078                14.0023                23.0902

                     7                      8                      9
                     A                      A                      A
 Frequencies --   662.8982               688.9231               924.9597
 Red. masses --     4.5789                 1.4586                 1.3946
 Frc consts  --     1.1855                 0.4079                 0.7030
 IR Inten    --     5.3477                89.5077                11.0091

                    10                     11                     12
                     A                      A                      A
 Frequencies --   963.2932              1031.5318              1143.0085
 Red. masses --     8.8859                 4.5798                 3.7729
 Frc consts  --     4.8581                 2.8712                 2.9042
 IR Inten    --    19.0707                50.4390               105.3036

                    13                     14                     15
                     A                      A                      A
 Frequencies --  1167.8581              1291.4673              1318.2801
 Red. masses --     2.3923                 2.1980                 4.4685
 Frc consts  --     1.9224                 2.1600                 4.5754
 IR Inten    --    39.6792                39.9046                73.2974

                    16                     17                     18
                     A                      A                      A
 Frequencies --  1374.6397              1436.6655              1495.8274
 Red. masses --     5.5290                 3.7345                 2.6713
 Frc consts  --     6.1557                 4.5415                 3.5216
 IR Inten    --     6.7993                18.4019                 5.2903

                    19                     20                     21
                     A                      A                      A
 Frequencies --  2339.3071              3274.8877              3551.3839
 Red. masses --    13.9866                 1.1024                 1.0861
 Frc consts  --    45.0957                 6.9659                 8.0708
 IR Inten    --   197.6730                25.8747               227.3619

 - Thermochemistry -
 -------------------
 Temperature   298.150 Kelvin.  Pressure   1.00000 Atm.
 Atom     1 has atomic number  7 and mass  14.00307

 Molecular mass:    96.03102 amu.
 Principal axes and moments of inertia in atomic units:
                           1         2         3
     Eigenvalues --   188.24043 845.581181033.82161
           X            0.99989  -0.01498   0.00001
           Y            0.01498   0.99989  -0.00001
           Z           -0.00001   0.00001   1.00000
 This molecule is an asymmetric top.
 Rotational symmetry number  1.
 Rotational temperatures (Kelvin)      0.46012     0.10243     0.08378
 Rotational constants (GHZ):           9.58743     2.13432     1.74570
 Zero-point vibrational energy     151018.6 (Joules/Mol)
                                   36.09432 (Kcal/Mol)
 Warning -- explicit consideration of   6 degrees of freedom as
           vibrations may cause significant error
 Vibrational temperatures:    249.20   262.17   692.86   756.36   863.82
          (Kelvin)            892.55   953.76   991.21  1330.81  1385.96
                             1484.14  1644.53  1680.29  1858.13  1896.71
                             1977.80  2067.04  2152.16  3365.74  4711.83
                             5109.64

 Zero-point correction=                           0.057520 (Hartree/Particle)
 Thermal correction to Energy=                    0.062750
 Thermal correction to Enthalpy=                  0.063694
 Thermal correction to Gibbs Free Energy=         0.028410
 Sum of electronic and zero-point Energies=           -350.786751
 Sum of electronic and thermal Energies=              -350.781521
 Sum of electronic and thermal Enthalpies=            -350.780576
 Sum of electronic and thermal Free Energies=         -350.815861

                     E (Thermal)             CV                S
                      KCal/Mol        Cal/Mol-Kelvin    Cal/Mol-Kelvin
 Total                   39.376             18.239             74.262
 Electronic               0.000              0.000              0.000
 Translational            0.889              2.981             39.597
 Rotational               0.889              2.981             26.601
 Vibrational             37.599             12.277              8.064
 Vibration     1          0.627              1.875              2.400
 Vibration     2          0.630              1.864              2.306
 Vibration     3          0.838              1.291              0.706
 Vibration     4          0.881              1.193              0.597
 Vibration     5          0.959              1.031              0.449
 Vibration     6          0.980              0.989              0.416

 Optimization completed.
    -- Stationary point found.
 Normal termination of Gaussian 09 at Thu Apr 12 01:04:14 2018.
