 Gaussian 09, Revision B.01,
 Gaussian 09:  EM64L-G09RevB.01 12-Aug-2010

 ----------------------------------------------------------------------
 #p Temperature=298.15 opt=(maxcycles=1024) SCF=(maxcycles=1024) freq U
 B3LYP/aug-cc-pVDZ
 ----------------------------------------------------------------------

 -----------------------------------------------
 1H-1,2,4-Triazole-5+-UB3LYP-aug-cc-pVDZ-Singlet
 -----------------------------------------------
 Symbolic Z-matrix:
 Charge =  1 Multiplicity = 1

 SCF Done:  E(UB3LYP) =  -241.134508711     A.U. after   23 cycles
 SCF Done:  E(UB3LYP) =  -241.184373704     A.U. after   19 cycles
 SCF Done:  E(UB3LYP) =  -241.201145623     A.U. after   14 cycles
 SCF Done:  E(UB3LYP) =  -241.204468086     A.U. after   13 cycles
 SCF Done:  E(UB3LYP) =  -241.205443377     A.U. after   15 cycles
 SCF Done:  E(UB3LYP) =  -241.204244210     A.U. after   15 cycles
 SCF Done:  E(UB3LYP) =  -241.205905009     A.U. after   13 cycles
 SCF Done:  E(UB3LYP) =  -241.206118907     A.U. after   13 cycles
 SCF Done:  E(UB3LYP) =  -241.206134696     A.U. after   12 cycles
 SCF Done:  E(UB3LYP) =  -241.206144189     A.U. after   10 cycles
 SCF Done:  E(UB3LYP) =  -241.206247966     A.U. after   14 cycles
 SCF Done:  E(UB3LYP) =  -241.206241062     A.U. after   13 cycles
 SCF Done:  E(UB3LYP) =  -241.206258886     A.U. after   12 cycles
 SCF Done:  E(UB3LYP) =  -241.206280167     A.U. after   12 cycles
 SCF Done:  E(UB3LYP) =  -241.206295388     A.U. after   12 cycles
 SCF Done:  E(UB3LYP) =  -241.206303248     A.U. after   11 cycles
 SCF Done:  E(UB3LYP) =  -241.206303015     A.U. after   11 cycles
 SCF Done:  E(UB3LYP) =  -241.206305902     A.U. after   10 cycles
 SCF Done:  E(UB3LYP) =  -241.206306017     A.U. after   10 cycles
 Optimization completed.
    -- Stationary point found.
 Normal termination of Gaussian 09 at Thu Apr 12 01:51:44 2018.

 ----------------------------------------------------------------------
 #P Geom=AllCheck Guess=TCheck SCRF=Check GenChk UB3LYP/Aug-CC-pVDZ Fre
 q
 ----------------------------------------------------------------------

 1H-1,2,4-Triazole-5+-UB3LYP-aug-cc-pVDZ-Singlet
 -----------------------------------------------
 Redundant internal coordinates taken from checkpoint file:
 /home/ubuntu/g09/Gau-18615.chk
 Charge =  1 Multiplicity = 1

                         Standard orientation:
 ---------------------------------------------------------------------
 Center     Atomic      Atomic             Coordinates (Angstroms)
 Number     Number       Type             X           Y           Z
 ---------------------------------------------------------------------
      1          6           0        0.087841   -0.983007    0.089375
      2          6           0       -0.812617    0.696601    0.002482
      3          1           0       -1.600650    1.443741    0.071308
      4          7           0        1.148432   -0.225335   -0.073859
      5          1           0        2.143455   -0.351993    0.117245
      6          7           0        0.497943    1.001550    0.015711
      7          7           0       -1.102682   -0.686687   -0.047523
 ---------------------------------------------------------------------

 SCF Done:  E(UB3LYP) =  -241.206306017     A.U. after    1 cycles

 The electronic state is 1-A.
 Alpha  occ. eigenvalues --  -14.72412 -14.66506 -14.65586 -10.63008 -10.54826
 Alpha  occ. eigenvalues --   -1.39447  -1.23722  -1.11454  -0.92634  -0.90903
 Alpha  occ. eigenvalues --   -0.83286  -0.76482  -0.72883  -0.65581  -0.60364
 Alpha  occ. eigenvalues --   -0.57451  -0.55832
 Alpha virt. eigenvalues --   -0.44085  -0.28146  -0.24577  -0.18924  -0.14106
 Alpha virt. eigenvalues --   -0.13148  -0.11692  -0.11430  -0.09747  -0.09139
 Alpha virt. eigenvalues --   -0.06883  -0.06313  -0.05060  -0.04531  -0.02646

  Beta  occ. eigenvalues --  -14.72412 -14.66506 -14.65586 -10.63008 -10.54826
  Beta  occ. eigenvalues --   -1.39447  -1.23722  -1.11454  -0.92634  -0.90903
  Beta  occ. eigenvalues --   -0.83286  -0.76482  -0.72883  -0.65581  -0.60364
  Beta  occ. eigenvalues --   -0.57451  -0.55832
  Beta virt. eigenvalues --   -0.44085  -0.28146  -0.24577  -0.18924  -0.14106
  Beta virt. eigenvalues --   -0.13148  -0.11692  -0.11430  -0.09747  -0.09139
  Beta virt. eigenvalues --   -0.06883  -0.06313  -0.05060  -0.04531  -0.02646

 Mulliken atomic charges:
              1
     1  C    0.312672
     2  C    0.772132
     3  H   -0.133404
     4  N    0.178249
     5  H    0.043201
     6  N   -0.147367
     7  N   -0.025483
 Sum of Mulliken atomic charges =   1.00000

 Dipole moment (field-independent basis, Debye):
    X=              1.9447    Y=             -1.4322    Z=              0.3043  Tot=              2.4343
 Quadrupole moment (field-independent basis, Debye-Ang):
   XX=            -15.6059   YY=            -20.7223   ZZ=            -26.4785
   XY=             -6.1918   XZ=              0.3123   YZ=             -0.1439

  Exact polarizability:  43.595   0.408  42.842   0.086  -1.673  22.777
 Approx polarizability:  87.787   8.956  95.977   0.187  -5.076  33.755

                     1                      2                      3
                     A                      A                      A
 Frequencies --   200.1877               494.6344               600.7814
 Red. masses --     8.7089                 1.3288                 4.9499
 Frc consts  --     0.2056                 0.1915                 1.0526
 IR Inten    --    38.0990               114.0482                21.4186

                     4                      5                      6
                     A                      A                      A
 Frequencies --   641.6781               756.6388               836.3205
 Red. masses --     5.8845                 4.6869                 2.0539
 Frc consts  --     1.4276                 1.5809                 0.8464
 IR Inten    --    49.2276                26.5340                49.2266

                     7                      8                      9
                     A                      A                      A
 Frequencies --   903.7418              1078.5493              1215.2275
 Red. masses --     2.9565                 4.3089                 1.6456
 Frc consts  --     1.4227                 2.9532                 1.4319
 IR Inten    --    42.7545                30.9458                18.0425

                    10                     11                     12
                     A                      A                      A
 Frequencies --  1235.6474              1277.9911              1390.7890
 Red. masses --     2.1948                 2.1484                 3.1408
 Frc consts  --     1.9744                 2.0674                 3.5794
 IR Inten    --    31.6531                 2.1869                33.0595

                    13                     14                     15
                     A                      A                      A
 Frequencies --  1778.6011              3247.7795              3541.2050
 Red. masses --     9.4940                 1.1008                 1.0888
 Frc consts  --    17.6953                 6.8409                 8.0444
 IR Inten    --   134.1000                57.1148               366.9196

 - Thermochemistry -
 -------------------
 Temperature   298.150 Kelvin.  Pressure   1.00000 Atm.
 Atom     1 has atomic number  6 and mass  12.00000

 Molecular mass:    68.02487 amu.
 Principal axes and moments of inertia in atomic units:
                           1         2         3
     Eigenvalues --   144.80106 196.70308 339.89408
           X            0.97686  -0.21384   0.00247
           Y            0.21384   0.97687   0.00139
           Z           -0.00271  -0.00082   1.00000
 This molecule is an asymmetric top.
 Rotational symmetry number  1.
 Rotational temperatures (Kelvin)      0.59816     0.44033     0.25483
 Rotational constants (GHZ):          12.46359     9.17495     5.30972
 Zero-point vibrational energy     114840.1 (Joules/Mol)
                                   27.44745 (Kcal/Mol)
 Warning -- explicit consideration of   3 degrees of freedom as
           vibrations may cause significant error
 Vibrational temperatures:    288.03   711.67   864.39   923.23  1088.63
          (Kelvin)           1203.28  1300.28  1551.79  1748.44  1777.82
                             1838.74  2001.03  2559.01  4672.82  5095.00

 Zero-point correction=                           0.043740 (Hartree/Particle)
 Thermal correction to Energy=                    0.047952
 Thermal correction to Enthalpy=                  0.048896
 Thermal correction to Gibbs Free Energy=         0.017182
 Sum of electronic and zero-point Energies=           -241.162566
 Sum of electronic and thermal Energies=              -241.158354
 Sum of electronic and thermal Enthalpies=            -241.157410
 Sum of electronic and thermal Free Energies=         -241.189124

                     E (Thermal)             CV                S
                      KCal/Mol        Cal/Mol-Kelvin    Cal/Mol-Kelvin
 Total                   30.090             13.823             66.748
 Electronic               0.000              0.000              0.000
 Translational            0.889              2.981             38.570
 Rotational               0.889              2.981             23.786
 Vibrational             28.313              7.862              4.392
 Vibration     1          0.638              1.840              2.131
 Vibration     2          0.850              1.262              0.672
 Vibration     3          0.959              1.030              0.448

 Optimization completed.
    -- Stationary point found.
 Normal termination of Gaussian 09 at Thu Apr 12 01:52:37 2018.
