 Gaussian 09, Revision B.01,
 Gaussian 09:  EM64L-G09RevB.01 12-Aug-2010

 ----------------------------------------------------------------------
 #p Temperature=298.15 opt=(maxcycles=1024) SCF=(maxcycles=1024) freq U
 B3LYP/aug-cc-pVDZ
 ----------------------------------------------------------------------

 ----------------------------------------------
 1H-1,2,4-Triazole-3-UB3LYP-aug-cc-pVDZ-Doublet
 ----------------------------------------------
 Symbolic Z-matrix:
 Charge =  0 Multiplicity = 2

 SCF Done:  E(UB3LYP) =  -241.553789885     A.U. after   17 cycles
 SCF Done:  E(UB3LYP) =  -241.585645944     A.U. after   17 cycles
 SCF Done:  E(UB3LYP) =  -241.589510559     A.U. after   16 cycles
 SCF Done:  E(UB3LYP) =  -241.589893552     A.U. after   14 cycles
 SCF Done:  E(UB3LYP) =  -241.589905385     A.U. after   17 cycles
 SCF Done:  E(UB3LYP) =  -241.589884662     A.U. after   12 cycles
 SCF Done:  E(UB3LYP) =  -241.589920678     A.U. after   17 cycles
 Optimization completed.
    -- Stationary point found.
 Normal termination of Gaussian 09 at Sat Mar 12 01:32:56 2005.

 ----------------------------------------------------------------------
 #P Geom=AllCheck Guess=TCheck SCRF=Check GenChk UB3LYP/Aug-CC-pVDZ Fre
 q
 ----------------------------------------------------------------------

 1H-1,2,4-Triazole-3-UB3LYP-aug-cc-pVDZ-Doublet
 ----------------------------------------------
 Redundant internal coordinates taken from checkpoint file:
 /home/ubuntu/g09/Gau-30133.chk
 Charge =  0 Multiplicity = 2

                         Standard orientation:
 ---------------------------------------------------------------------
 Center     Atomic      Atomic             Coordinates (Angstroms)
 Number     Number       Type             X           Y           Z
 ---------------------------------------------------------------------
      1          6           0       -0.000196   -1.155495   -0.000190
      2          6           0        0.711646    0.788224   -0.000353
      3          1           0        1.320982    1.686192    0.000989
      4          7           0       -0.640731    0.800821   -0.000071
      5          1           0       -1.278383    1.586108    0.000191
      6          7           0       -1.126483   -0.483511    0.000178
      7          7           0        1.151313   -0.469978    0.000190
 ---------------------------------------------------------------------

 SCF Done:  E(UB3LYP) =  -241.589920678     A.U. after    1 cycles

 The electronic state is 2-A.
 Alpha  occ. eigenvalues --  -14.44212 -14.38261 -14.35641 -10.28697 -10.27375
 Alpha  occ. eigenvalues --   -1.10450  -0.92646  -0.85783  -0.67193  -0.61804
 Alpha  occ. eigenvalues --   -0.58924  -0.48589  -0.48558  -0.37537  -0.32655
 Alpha  occ. eigenvalues --   -0.31581  -0.29682  -0.29043
 Alpha virt. eigenvalues --   -0.02820  -0.02337   0.00762   0.02023   0.03235
 Alpha virt. eigenvalues --    0.04778   0.05753   0.06071   0.06538   0.08507
 Alpha virt. eigenvalues --    0.08848   0.10241   0.11301   0.12058   0.13721

  Beta  occ. eigenvalues --  -14.44086 -14.38167 -14.35426 -10.28570 -10.25724
  Beta  occ. eigenvalues --   -1.09927  -0.92087  -0.84980  -0.66570  -0.60157
  Beta  occ. eigenvalues --   -0.58047  -0.48274  -0.47859  -0.36408  -0.32305
  Beta  occ. eigenvalues --   -0.30867  -0.29041
  Beta virt. eigenvalues --   -0.12409  -0.02613  -0.02274   0.00773   0.03227
  Beta virt. eigenvalues --    0.03784   0.05570   0.05843   0.06314   0.06786
  Beta virt. eigenvalues --    0.08567   0.09068   0.10305   0.11298   0.12116

 Mulliken atomic charges:
              1
     1  C   -0.012210
     2  C    0.683363
     3  H   -0.256072
     4  N    0.140841
     5  H   -0.102588
     6  N   -0.216461
     7  N   -0.236873
 Sum of Mulliken atomic charges =   0.00000

 Dipole moment (field-independent basis, Debye):
    X=             -0.5323    Y=              3.7863    Z=              0.0008  Tot=              3.8235
 Quadrupole moment (field-independent basis, Debye-Ang):
   XX=            -32.2243   YY=            -23.7707   ZZ=            -29.4911
   XY=             -0.8160   XZ=              0.0006   YZ=              0.0024

  Exact polarizability:  48.694   0.962  48.524  -0.002   0.000  28.822
 Approx polarizability:  82.236   0.024  78.806  -0.008  -0.004  41.610

                     1                      2                      3
                     A                      A                      A
 Frequencies --   554.0438               642.6631               670.0461
 Red. masses --     1.8259                 6.6040                 1.9467
 Frc consts  --     0.3302                 1.6070                 0.5149
 IR Inten    --    73.9590                15.0715                 6.4155

                     4                      5                      6
                     A                      A                      A
 Frequencies --   848.2563               923.1231               968.6425
 Red. masses --     1.3912                 7.8150                 8.1777
 Frc consts  --     0.5898                 3.9237                 4.5207
 IR Inten    --    18.0657                 2.7056                20.2641

                     7                      8                      9
                     A                      A                      A
 Frequencies --  1040.8496              1133.5230              1234.2320
 Red. masses --     3.3962                 1.6965                 2.8211
 Frc consts  --     2.1678                 1.2843                 2.5320
 IR Inten    --    19.3779                15.1138                29.9311

                    10                     11                     12
                     A                      A                      A
 Frequencies --  1275.6320              1337.8139              1454.8616
 Red. masses --     5.1152                 6.1429                 2.6569
 Frc consts  --     4.9041                 6.4777                 3.3134
 IR Inten    --    30.3347                15.2809                29.6889

                    13                     14                     15
                     A                      A                      A
 Frequencies --  1483.4156              3259.3357              3633.6739
 Red. masses --     3.2703                 1.0991                 1.0832
 Frc consts  --     4.2399                 6.8793                 8.4269
 IR Inten    --    39.1970                 0.9859                76.2093

 - Thermochemistry -
 -------------------
 Temperature   298.150 Kelvin.  Pressure   1.00000 Atm.
 Atom     1 has atomic number  6 and mass  12.00000

 Molecular mass:    68.02487 amu.
 Principal axes and moments of inertia in atomic units:
                           1         2         3
     Eigenvalues --   157.35934 184.15240 341.51171
           X            0.99964   0.02692   0.00002
           Y           -0.02692   0.99964   0.00005
           Z           -0.00002  -0.00005   1.00000
 This molecule is an asymmetric top.
 Rotational symmetry number  1.
 Rotational temperatures (Kelvin)      0.55042     0.47034     0.25362
 Rotational constants (GHZ):          11.46892     9.80026     5.28457
 Zero-point vibrational energy     122378.6 (Joules/Mol)
                                   29.24920 (Kcal/Mol)
 Warning -- explicit consideration of   1 degrees of freedom as
           vibrations may cause significant error
 Vibrational temperatures:    797.14   924.65   964.05  1220.45  1328.17
          (Kelvin)           1393.66  1497.55  1630.88  1775.78  1835.35
                             1924.81  2093.22  2134.30  4689.45  5228.04

 Zero-point correction=                           0.046612 (Hartree/Particle)
 Thermal correction to Energy=                    0.050152
 Thermal correction to Enthalpy=                  0.051096
 Thermal correction to Gibbs Free Energy=         0.019894
 Sum of electronic and zero-point Energies=           -241.543309
 Sum of electronic and thermal Energies=              -241.539769
 Sum of electronic and thermal Enthalpies=            -241.538824
 Sum of electronic and thermal Free Energies=         -241.570027

                     E (Thermal)             CV                S
                      KCal/Mol        Cal/Mol-Kelvin    Cal/Mol-Kelvin
 Total                   31.471             11.608             65.671
 Electronic               0.000              0.000              1.377
 Translational            0.889              2.981             38.570
 Rotational               0.889              2.981             23.808
 Vibrational             29.693              5.647              1.916
 Vibration     1          0.909              1.131              0.536

 Optimization completed.
    -- Stationary point found.
 Normal termination of Gaussian 09 at Sat Mar 12 01:33:51 2005.
