 Gaussian 09, Revision B.01,
 Gaussian 09:  EM64L-G09RevB.01 12-Aug-2010

 ----------------------------------------------------------------------
 #p Temperature=298.15 opt=(maxcycles=1024) SCF=(maxcycles=1024) freq U
 B3LYP/aug-cc-pVDZ
 ----------------------------------------------------------------------

 -----------------------------------------------
 1H-1,2,3-Triazole-4+-UB3LYP-aug-cc-pVDZ-Singlet
 -----------------------------------------------
 Symbolic Z-matrix:
 Charge =  1 Multiplicity = 1

 SCF Done:  E(UB3LYP) =  -241.134927291     A.U. after   20 cycles
 SCF Done:  E(UB3LYP) =  -241.177135102     A.U. after   16 cycles
 SCF Done:  E(UB3LYP) =  -241.191015603     A.U. after   14 cycles
 SCF Done:  E(UB3LYP) =  -241.191971637     A.U. after   14 cycles
 SCF Done:  E(UB3LYP) =  -241.190873469     A.U. after   15 cycles
 SCF Done:  E(UB3LYP) =  -241.192211527     A.U. after   14 cycles
 SCF Done:  E(UB3LYP) =  -241.192386778     A.U. after   13 cycles
 SCF Done:  E(UB3LYP) =  -241.192399473     A.U. after   15 cycles
 Optimization completed.
    -- Stationary point found.
 Normal termination of Gaussian 09 at Wed Apr 11 23:10:18 2018.

 ----------------------------------------------------------------------
 #P Geom=AllCheck Guess=TCheck SCRF=Check GenChk UB3LYP/Aug-CC-pVDZ Fre
 q
 ----------------------------------------------------------------------

 1H-1,2,3-Triazole-4+-UB3LYP-aug-cc-pVDZ-Singlet
 -----------------------------------------------
 Redundant internal coordinates taken from checkpoint file:
 /home/ubuntu/g09/Gau-16640.chk
 Charge =  1 Multiplicity = 1

                         Standard orientation:
 ---------------------------------------------------------------------
 Center     Atomic      Atomic             Coordinates (Angstroms)
 Number     Number       Type             X           Y           Z
 ---------------------------------------------------------------------
      1          6           0       -0.246918   -1.013480   -0.000064
      2          7           0        0.727197    0.710398   -0.000130
      3          1           0        1.327871    1.538748    0.000494
      4          6           0        1.065121   -0.591833    0.000034
      5          1           0        2.039245   -1.066810    0.000147
      6          7           0       -0.628967    0.911763   -0.000010
      7          7           0       -1.280563   -0.313599    0.000073
 ---------------------------------------------------------------------

 SCF Done:  E(UB3LYP) =  -241.192399473     A.U. after    1 cycles

 The electronic state is 1-A.
 Alpha  occ. eigenvalues --  -14.71404 -14.70442 -14.67265 -10.58616 -10.54020
 Alpha  occ. eigenvalues --   -1.39732  -1.21751  -1.09358  -0.95832  -0.88103
 Alpha  occ. eigenvalues --   -0.82760  -0.75406  -0.75333  -0.65180  -0.60584
 Alpha  occ. eigenvalues --   -0.58325  -0.54430
 Alpha virt. eigenvalues --   -0.42996  -0.30327  -0.22614  -0.18630  -0.15150
 Alpha virt. eigenvalues --   -0.12936  -0.11640  -0.11334  -0.10610  -0.09103
 Alpha virt. eigenvalues --   -0.07593  -0.06057  -0.04949  -0.04399  -0.04173

  Beta  occ. eigenvalues --  -14.71404 -14.70442 -14.67265 -10.58616 -10.54020
  Beta  occ. eigenvalues --   -1.39732  -1.21751  -1.09358  -0.95832  -0.88103
  Beta  occ. eigenvalues --   -0.82760  -0.75406  -0.75333  -0.65180  -0.60584
  Beta  occ. eigenvalues --   -0.58325  -0.54430
  Beta virt. eigenvalues --   -0.42996  -0.30327  -0.22614  -0.18630  -0.15150
  Beta virt. eigenvalues --   -0.12936  -0.11640  -0.11334  -0.10610  -0.09103
  Beta virt. eigenvalues --   -0.07593  -0.06057  -0.04949  -0.04399  -0.04173

 Mulliken atomic charges:
              1
     1  C    0.353161
     2  N    0.160278
     3  H    0.001144
     4  C    0.862613
     5  H   -0.198130
     6  N   -0.102733
     7  N   -0.076333
 Sum of Mulliken atomic charges =   1.00000

 Dipole moment (field-independent basis, Debye):
    X=              4.3420    Y=             -1.1091    Z=              0.0010  Tot=              4.4814
 Quadrupole moment (field-independent basis, Debye-Ang):
   XX=            -18.7099   YY=            -16.8234   ZZ=            -26.8576
   XY=              2.1200   XZ=              0.0017   YZ=              0.0013

  Exact polarizability:  43.546  -1.767  42.851   0.001   0.001  23.418
 Approx polarizability:  83.906 -10.555 106.873  -0.001   0.000  33.475

                     1                      2                      3
                     A                      A                      A
 Frequencies --   357.0445               611.7631               647.7410
 Red. masses --     8.1869                11.0972                 7.7879
 Frc consts  --     0.6149                 2.4470                 1.9252
 IR Inten    --     0.6867                43.4184                 2.4144

                     4                      5                      6
                     A                      A                      A
 Frequencies --   725.3542               779.3559               810.4059
 Red. masses --     1.1698                 1.2176                 9.3698
 Frc consts  --     0.3626                 0.4357                 3.6256
 IR Inten    --   125.6354                 0.6678                25.7271

                     7                      8                      9
                     A                      A                      A
 Frequencies --   915.6291              1010.5209              1083.9668
 Red. masses --     7.2967                 2.3384                 2.0924
 Frc consts  --     3.6042                 1.4069                 1.4485
 IR Inten    --     8.4613                22.7872                 8.8088

                    10                     11                     12
                     A                      A                      A
 Frequencies --  1256.3060              1356.4062              1467.9161
 Red. masses --     2.7564                 2.9354                 2.1723
 Frc consts  --     2.5633                 3.1820                 2.7579
 IR Inten    --     4.6467                15.2155                40.0567

                    13                     14                     15
                     A                      A                      A
 Frequencies --  1677.7675              3294.5680              3506.2306
 Red. masses --     7.7804                 1.1075                 1.0862
 Frc consts  --    12.9038                 7.0826                 7.8673
 IR Inten    --     5.4172                94.4046               241.0023

 - Thermochemistry -
 -------------------
 Temperature   298.150 Kelvin.  Pressure   1.00000 Atm.
 Atom     1 has atomic number  6 and mass  12.00000

 Molecular mass:    68.02487 amu.
 Principal axes and moments of inertia in atomic units:
                           1         2         3
     Eigenvalues --   143.35373 200.18430 343.53803
           X            0.99998  -0.00688   0.00002
           Y            0.00688   0.99998   0.00001
           Z           -0.00002  -0.00001   1.00000
 This molecule is an asymmetric top.
 Rotational symmetry number  1.
 Rotational temperatures (Kelvin)      0.60420     0.43267     0.25212
 Rotational constants (GHZ):          12.58943     9.01540     5.25340
 Zero-point vibrational energy     116641.7 (Joules/Mol)
                                   27.87804 (Kcal/Mol)
 Warning -- explicit consideration of   2 degrees of freedom as
           vibrations may cause significant error
 Vibrational temperatures:    513.71   880.19   931.95  1043.62  1121.32
          (Kelvin)           1165.99  1317.38  1453.91  1559.58  1807.54
                             1951.56  2112.00  2413.93  4740.14  5044.68

 Zero-point correction=                           0.044426 (Hartree/Particle)
 Thermal correction to Energy=                    0.048308
 Thermal correction to Enthalpy=                  0.049252
 Thermal correction to Gibbs Free Energy=         0.018190
 Sum of electronic and zero-point Energies=           -241.147973
 Sum of electronic and thermal Energies=              -241.144092
 Sum of electronic and thermal Enthalpies=            -241.143148
 Sum of electronic and thermal Free Energies=         -241.174209

                     E (Thermal)             CV                S
                      KCal/Mol        Cal/Mol-Kelvin    Cal/Mol-Kelvin
 Total                   30.314             13.118             65.375
 Electronic               0.000              0.000              0.000
 Translational            0.889              2.981             38.570
 Rotational               0.889              2.981             23.804
 Vibrational             28.536              7.157              3.001
 Vibration     1          0.732              1.561              1.135
 Vibration     2          0.971              1.007              0.430

 Optimization completed.
    -- Stationary point found.
 Normal termination of Gaussian 09 at Wed Apr 11 23:11:10 2018.
