 Gaussian 09, Revision B.01,
 Gaussian 09:  EM64L-G09RevB.01 12-Aug-2010

 ----------------------------------------------------------------------
 #p Temperature=298.15 opt=(maxcycles=1024) SCF=(maxcycles=1024) freq U
 B3LYP/aug-cc-pVDZ
 ----------------------------------------------------------------------

 -----------------------------------------------
 1H-1,2,4-Triazole-5+-UB3LYP-aug-cc-pVDZ-Triplet
 -----------------------------------------------
 Symbolic Z-matrix:
 Charge =  1 Multiplicity = 3

 SCF Done:  E(UB3LYP) =  -241.188803944     A.U. after   24 cycles
 SCF Done:  E(UB3LYP) =  -241.215879928     A.U. after   21 cycles
 SCF Done:  E(UB3LYP) =  -241.219282753     A.U. after   19 cycles
 SCF Done:  E(UB3LYP) =  -241.219669943     A.U. after   15 cycles
 SCF Done:  E(UB3LYP) =  -241.219414706     A.U. after   19 cycles
 SCF Done:  E(UB3LYP) =  -241.219837045     A.U. after   17 cycles
 SCF Done:  E(UB3LYP) =  -241.219904325     A.U. after   17 cycles
 SCF Done:  E(UB3LYP) =  -241.219894952     A.U. after   17 cycles
 SCF Done:  E(UB3LYP) =  -241.219937797     A.U. after   14 cycles
 SCF Done:  E(UB3LYP) =  -241.219939868     A.U. after   16 cycles
 Optimization completed.
    -- Stationary point found.
 Normal termination of Gaussian 09 at Thu Apr 12 01:55:05 2018.

 ----------------------------------------------------------------------
 #P Geom=AllCheck Guess=TCheck SCRF=Check GenChk UB3LYP/Aug-CC-pVDZ Fre
 q
 ----------------------------------------------------------------------

 1H-1,2,4-Triazole-5+-UB3LYP-aug-cc-pVDZ-Triplet
 -----------------------------------------------
 Redundant internal coordinates taken from checkpoint file:
 /home/ubuntu/g09/Gau-20839.chk
 Charge =  1 Multiplicity = 3

                         Standard orientation:
 ---------------------------------------------------------------------
 Center     Atomic      Atomic             Coordinates (Angstroms)
 Number     Number       Type             X           Y           Z
 ---------------------------------------------------------------------
      1          6           0        0.065333   -1.151555    0.000138
      2          6           0       -0.829004    0.713371   -0.000063
      3          1           0       -1.549025    1.530865    0.000812
      4          7           0        1.097743   -0.194419   -0.000123
      5          1           0        2.111344   -0.340759    0.000621
      6          7           0        0.583002    0.987833   -0.000052
      7          7           0       -1.106500   -0.587843   -0.000095
 ---------------------------------------------------------------------

 SCF Done:  E(UB3LYP) =  -241.219939868     A.U. after    1 cycles

 The electronic state is 3-A.
 Alpha  occ. eigenvalues --  -14.73174 -14.69621 -14.62456 -10.59306 -10.56254
 Alpha  occ. eigenvalues --   -1.40017  -1.22393  -1.10887  -0.93335  -0.92277
 Alpha  occ. eigenvalues --   -0.83433  -0.77353  -0.73908  -0.65530  -0.61746
 Alpha  occ. eigenvalues --   -0.58506  -0.56633  -0.56518
 Alpha virt. eigenvalues --   -0.31702  -0.25105  -0.18653  -0.14562  -0.13201
 Alpha virt. eigenvalues --   -0.11448  -0.11318  -0.09696  -0.08008  -0.07140
 Alpha virt. eigenvalues --   -0.06568  -0.04692  -0.04521  -0.03833  -0.02717

  Beta  occ. eigenvalues --  -14.72824 -14.68791 -14.62439 -10.57055 -10.55578
  Beta  occ. eigenvalues --   -1.38383  -1.21630  -1.07876  -0.91954  -0.90513
  Beta  occ. eigenvalues --   -0.81357  -0.73600  -0.72642  -0.62603  -0.60396
  Beta  occ. eigenvalues --   -0.56587
  Beta virt. eigenvalues --   -0.45094  -0.39769  -0.25951  -0.21488  -0.18388
  Beta virt. eigenvalues --   -0.14253  -0.12750  -0.11037  -0.10420  -0.09292
  Beta virt. eigenvalues --   -0.07631  -0.06182  -0.05377  -0.04458  -0.04008

 Mulliken atomic charges:
              1
     1  C    0.302491
     2  C    0.737076
     3  H   -0.099352
     4  N    0.162302
     5  H    0.025057
     6  N   -0.106224
     7  N   -0.021351
 Sum of Mulliken atomic charges =   1.00000

 Dipole moment (field-independent basis, Debye):
    X=              2.0804    Y=              0.0077    Z=              0.0017  Tot=              2.0805
 Quadrupole moment (field-independent basis, Debye-Ang):
   XX=            -16.6938   YY=            -21.8360   ZZ=            -25.5058
   XY=             -6.3603   XZ=              0.0014   YZ=              0.0003

  Exact polarizability:  42.058  -1.943  40.292   0.001   0.000  22.560
 Approx polarizability:  69.116  -4.146  74.235   0.002  -0.002  33.551

                     1                      2                      3
                     A                      A                      A
 Frequencies --   498.9694               648.7882               757.1333
 Red. masses --     3.1337                 9.0339                 1.1256
 Frc consts  --     0.4597                 2.2404                 0.3802
 IR Inten    --    16.0139                 1.5598               102.9634

                     4                      5                      6
                     A                      A                      A
 Frequencies --   781.3200               852.4096               888.0095
 Red. masses --     8.2653                10.9738                 1.6291
 Frc consts  --     2.9728                 4.6979                 0.7569
 IR Inten    --     1.9041                15.9769                 0.0196

                     7                      8                      9
                     A                      A                      A
 Frequencies --   943.8777              1071.3100              1227.0318
 Red. masses --     4.0691                 4.9663                 1.7673
 Frc consts  --     2.1359                 3.3582                 1.5677
 IR Inten    --    33.3424                18.4279                51.8107

                    10                     11                     12
                     A                      A                      A
 Frequencies --  1290.7968              1333.2657              1378.3498
 Red. masses --     4.1288                 3.2664                 2.3290
 Frc consts  --     4.0531                 3.4210                 2.6070
 IR Inten    --    46.2044                 9.9183                64.4315

                    13                     14                     15
                     A                      A                      A
 Frequencies --  1491.7272              3248.8113              3499.4880
 Red. masses --     3.0275                 1.1031                 1.0857
 Frc consts  --     3.9692                 6.8596                 7.8339
 IR Inten    --    49.1786                39.4869               293.6884

 - Thermochemistry -
 -------------------
 Temperature   298.150 Kelvin.  Pressure   1.00000 Atm.
 Atom     1 has atomic number  6 and mass  12.00000

 Molecular mass:    68.02487 amu.
 Principal axes and moments of inertia in atomic units:
                           1         2         3
     Eigenvalues --   152.42062 195.73549 348.15609
           X            0.96524  -0.26137   0.00000
           Y            0.26137   0.96524   0.00002
           Z           -0.00001  -0.00002   1.00000
 This molecule is an asymmetric top.
 Rotational symmetry number  1.
 Rotational temperatures (Kelvin)      0.56826     0.44250     0.24878
 Rotational constants (GHZ):          11.84053     9.22031     5.18371
 Zero-point vibrational energy     119096.0 (Joules/Mol)
                                   28.46462 (Kcal/Mol)
 Warning -- explicit consideration of   1 degrees of freedom as
           vibrations may cause significant error
 Vibrational temperatures:    717.90   933.46  1089.34  1124.14  1226.43
          (Kelvin)           1277.65  1358.03  1541.37  1765.42  1857.17
                             1918.27  1983.14  2146.26  4674.31  5034.98

 Zero-point correction=                           0.045361 (Hartree/Particle)
 Thermal correction to Energy=                    0.048974
 Thermal correction to Enthalpy=                  0.049918
 Thermal correction to Gibbs Free Energy=         0.018211
 Sum of electronic and zero-point Energies=           -241.174579
 Sum of electronic and thermal Energies=              -241.170966
 Sum of electronic and thermal Enthalpies=            -241.170022
 Sum of electronic and thermal Free Energies=         -241.201729

                     E (Thermal)             CV                S
                      KCal/Mol        Cal/Mol-Kelvin    Cal/Mol-Kelvin
 Total                   30.731             12.048             66.734
 Electronic               0.000              0.000              2.183
 Translational            0.889              2.981             38.570
 Rotational               0.889              2.981             23.856
 Vibrational             28.954              6.086              2.125
 Vibration     1          0.854              1.252              0.661

 Optimization completed.
    -- Stationary point found.
 Normal termination of Gaussian 09 at Thu Apr 12 01:56:00 2018.
