 Gaussian 09, Revision B.01,
 Gaussian 09:  EM64L-G09RevB.01 12-Aug-2010

 ----------------------------------------------------------------------
 #p Temperature=298.15 opt=(maxcycles=1024) SCF=(maxcycles=1024) freq U
 B3LYP/aug-cc-pVDZ
 ----------------------------------------------------------------------

 --------------------------------------------------
 1H-1,2,4-Triazole-5-N2+-UB3LYP-aug-cc-pVDZ-Triplet
 --------------------------------------------------
 Symbolic Z-matrix:
 Charge =  1 Multiplicity = 3

 SCF Done:  E(UB3LYP) =  -350.716189807     A.U. after   26 cycles
 SCF Done:  E(UB3LYP) =  -350.744400730     A.U. after   21 cycles
 SCF Done:  E(UB3LYP) =  -350.747678264     A.U. after   21 cycles
 SCF Done:  E(UB3LYP) =  -350.747679937     A.U. after   24 cycles
 SCF Done:  E(UB3LYP) =  -350.747955064     A.U. after   19 cycles
 SCF Done:  E(UB3LYP) =  -350.747992548     A.U. after   19 cycles
 SCF Done:  E(UB3LYP) =  -350.748019431     A.U. after   19 cycles
 SCF Done:  E(UB3LYP) =  -350.748034917     A.U. after   17 cycles
 SCF Done:  E(UB3LYP) =  -350.748053362     A.U. after   18 cycles
 SCF Done:  E(UB3LYP) =  -350.695207799     A.U. after   27 cycles
 SCF Done:  E(UB3LYP) =  -350.761541733     A.U. after   20 cycles
 SCF Done:  E(UB3LYP) =  -350.761565877     A.U. after   20 cycles
 SCF Done:  E(UB3LYP) =  -350.761584133     A.U. after   15 cycles
 SCF Done:  E(UB3LYP) =  -350.761595618     A.U. after   15 cycles
 SCF Done:  E(UB3LYP) =  -350.761597317     A.U. after   15 cycles
 SCF Done:  E(UB3LYP) =  -350.761598479     A.U. after   13 cycles
 SCF Done:  E(UB3LYP) =  -350.761599413     A.U. after   14 cycles
 SCF Done:  E(UB3LYP) =  -350.761599599     A.U. after   13 cycles
 SCF Done:  E(UB3LYP) =  -350.761599644     A.U. after   23 cycles
 Optimization completed.
    -- Stationary point found.
 Normal termination of Gaussian 09 at Thu Apr 12 01:38:18 2018.

 ----------------------------------------------------------------------
 #P Geom=AllCheck Guess=TCheck SCRF=Check GenChk UB3LYP/Aug-CC-pVDZ Fre
 q
 ----------------------------------------------------------------------

 1H-1,2,4-Triazole-5-N2+-UB3LYP-aug-cc-pVDZ-Triplet
 --------------------------------------------------
 Redundant internal coordinates taken from checkpoint file:
 /home/ubuntu/g09/Gau-12646.chk
 Charge =  1 Multiplicity = 3

                         Standard orientation:
 ---------------------------------------------------------------------
 Center     Atomic      Atomic             Coordinates (Angstroms)
 Number     Number       Type             X           Y           Z
 ---------------------------------------------------------------------
      1          7           0       -1.664200    0.471986   -0.000379
      2          7           0       -2.545908   -0.351197    0.000372
      3          6           0       -0.327576    0.081195   -0.000090
      4          6           0        1.538509   -0.866156    0.000014
      5          1           0        2.346908   -1.595149    0.000008
      6          7           0        0.670801    1.073634    0.000063
      7          1           0        0.548558    2.091162    0.000082
      8          7           0        1.838648    0.537686    0.000139
      9          7           0        0.249079   -1.130143   -0.000143
 ---------------------------------------------------------------------

 SCF Done:  E(UB3LYP) =  -350.761599644     A.U. after    1 cycles

 The electronic state is 3-A.
 Alpha  occ. eigenvalues --  -14.71747 -14.68322 -14.65734 -14.65394 -14.60977
 Alpha  occ. eigenvalues --  -10.59732 -10.53910  -1.39031  -1.31620  -1.20505
 Alpha  occ. eigenvalues --   -1.11453  -0.98527  -0.91633  -0.89183  -0.80239
 Alpha  occ. eigenvalues --   -0.77034  -0.72742  -0.69471  -0.67526  -0.65431
 Alpha  occ. eigenvalues --   -0.60875  -0.59742  -0.55730  -0.54643  -0.45667
 Alpha virt. eigenvalues --   -0.33838  -0.27290  -0.20101  -0.18105  -0.14654
 Alpha virt. eigenvalues --   -0.13008  -0.11581  -0.11392  -0.09086  -0.07942
 Alpha virt. eigenvalues --   -0.06364  -0.06017  -0.04937  -0.04705  -0.03571

  Beta  occ. eigenvalues --  -14.71708 -14.67563 -14.65568 -14.63261 -14.61156
  Beta  occ. eigenvalues --  -10.58801 -10.53514  -1.37993  -1.29361  -1.20180
  Beta  occ. eigenvalues --   -1.09196  -0.96420  -0.90806  -0.88199  -0.79405
  Beta  occ. eigenvalues --   -0.74162  -0.71519  -0.65631  -0.65057  -0.62241
  Beta  occ. eigenvalues --   -0.59027  -0.59009  -0.55532
  Beta virt. eigenvalues --   -0.44648  -0.29895  -0.29401  -0.23945  -0.17949
  Beta virt. eigenvalues --   -0.17711  -0.14379  -0.12812  -0.11191  -0.11167
  Beta virt. eigenvalues --   -0.08865  -0.07594  -0.06147  -0.05395  -0.04705

 Mulliken atomic charges:
              1
     1  N    0.195786
     2  N   -0.317685
     3  C    0.559272
     4  C    0.798656
     5  H   -0.146255
     6  N    0.172666
     7  H   -0.008752
     8  N   -0.191563
     9  N   -0.062126
 Sum of Mulliken atomic charges =   1.00000

 Dipole moment (field-independent basis, Debye):
    X=              2.9646    Y=              1.9375    Z=              0.0002  Tot=              3.5416
 Quadrupole moment (field-independent basis, Debye-Ang):
   XX=            -28.2647   YY=            -28.7895   ZZ=            -35.3907
   XY=             -4.1097   XZ=              0.0002   YZ=              0.0010

  Exact polarizability:  81.146   1.061  50.602   0.000  -0.001  30.063
 Approx polarizability: 138.761   6.634  85.766  -0.001  -0.004  46.313

                     1                      2                      3
                     A                      A                      A
 Frequencies --    36.6626               224.8195               229.3440
 Red. masses --    13.4591                 7.9871                 8.9906
 Frc consts  --     0.0107                 0.2379                 0.2786
 IR Inten    --     0.3576                 1.8595                 1.1179

                     4                      5                      6
                     A                      A                      A
 Frequencies --   482.8457               514.8239               678.7863
 Red. masses --     8.6331                 3.3871                 6.8879
 Frc consts  --     1.1859                 0.5289                 1.8698
 IR Inten    --    10.5676                13.9404                 2.3658

                     7                      8                      9
                     A                      A                      A
 Frequencies --   691.2845               777.5851               876.0283
 Red. masses --    11.7660                 1.1674                11.0893
 Frc consts  --     3.3128                 0.4159                 5.0141
 IR Inten    --     0.9675               106.3809                 1.1425

                    10                     11                     12
                     A                      A                      A
 Frequencies --   910.7519               950.4267               995.4650
 Red. masses --     1.5715                 4.1127                 6.1730
 Frc consts  --     0.7680                 2.1889                 3.6041
 IR Inten    --     0.2710                11.4857                18.9635

                    13                     14                     15
                     A                      A                      A
 Frequencies --  1128.9611              1255.0392              1287.5309
 Red. masses --     4.2811                 1.5435                 4.2330
 Frc consts  --     3.2149                 1.4325                 4.1344
 IR Inten    --    39.0638                68.8305                84.1099

                    16                     17                     18
                     A                      A                      A
 Frequencies --  1382.7858              1419.5031              1499.9293
 Red. masses --     4.5139                 2.7031                 3.4425
 Frc consts  --     5.0853                 3.2091                 4.5632
 IR Inten    --    77.7921               110.4287                10.8625

                    19                     20                     21
                     A                      A                      A
 Frequencies --  1674.6375              3254.9209              3485.7021
 Red. masses --    12.6748                 1.1040                 1.0856
 Frc consts  --    20.9427                 6.8912                 7.7716
 IR Inten    --    82.0375                33.9087               270.4746

 - Thermochemistry -
 -------------------
 Temperature   298.150 Kelvin.  Pressure   1.00000 Atm.
 Atom     1 has atomic number  7 and mass  14.00307

 Molecular mass:    96.03102 amu.
 Principal axes and moments of inertia in atomic units:
                           1         2         3
     Eigenvalues --   210.44691 784.04591 994.49278
           X            0.99987  -0.01598   0.00000
           Y            0.01598   0.99987   0.00000
           Z            0.00000   0.00000   1.00000
 This molecule is an asymmetric top.
 Rotational symmetry number  1.
 Rotational temperatures (Kelvin)      0.41157     0.11047     0.08709
 Rotational constants (GHZ):           8.57576     2.30183     1.81474
 Zero-point vibrational energy     142103.4 (Joules/Mol)
                                   33.96353 (Kcal/Mol)
 Warning -- explicit consideration of   5 degrees of freedom as
           vibrations may cause significant error
 Vibrational temperatures:     52.75   323.46   329.97   694.71   740.72
          (Kelvin)            976.62   994.60  1118.77  1260.41  1310.37
                             1367.45  1432.25  1624.32  1805.72  1852.47
                             1989.52  2042.35  2158.06  2409.43  4683.10
                             5015.14

 Zero-point correction=                           0.054124 (Hartree/Particle)
 Thermal correction to Energy=                    0.059895
 Thermal correction to Enthalpy=                  0.060839
 Thermal correction to Gibbs Free Energy=         0.022600
 Sum of electronic and zero-point Energies=           -350.707475
 Sum of electronic and thermal Energies=              -350.701705
 Sum of electronic and thermal Enthalpies=            -350.700761
 Sum of electronic and thermal Free Energies=         -350.739000

                     E (Thermal)             CV                S
                      KCal/Mol        Cal/Mol-Kelvin    Cal/Mol-Kelvin
 Total                   37.585             19.198             80.481
 Electronic               0.000              0.000              2.183
 Translational            0.889              2.981             39.597
 Rotational               0.889              2.981             26.598
 Vibrational             35.807             13.236             12.103
 Vibration     1          0.594              1.982              5.432
 Vibration     2          0.649              1.803              1.920
 Vibration     3          0.652              1.796              1.884
 Vibration     4          0.839              1.288              0.702
 Vibration     5          0.870              1.217              0.622

 Optimization completed.
    -- Stationary point found.
 Normal termination of Gaussian 09 at Thu Apr 12 01:40:41 2018.
