 Gaussian 09, Revision B.01,
 Gaussian 09:  EM64L-G09RevB.01 12-Aug-2010

 ----------------------------------------------------------------------
 #p Temperature=298.15 opt=(maxcycles=1024) SCF=(maxcycles=1024) freq U
 B3LYP/aug-cc-pVDZ
 ----------------------------------------------------------------------

 ----------------------------------------------
 1H-1,2,3-Triazole-5-UB3LYP-aug-cc-pVDZ-Doublet
 ----------------------------------------------
 Symbolic Z-matrix:
 Charge =  0 Multiplicity = 2

 SCF Done:  E(UB3LYP) =  -241.541405144     A.U. after   17 cycles
 SCF Done:  E(UB3LYP) =  -241.558387356     A.U. after   15 cycles
 SCF Done:  E(UB3LYP) =  -241.559637381     A.U. after   15 cycles
 SCF Done:  E(UB3LYP) =  -241.559832602     A.U. after   18 cycles
 SCF Done:  E(UB3LYP) =  -241.559715593     A.U. after   18 cycles
 SCF Done:  E(UB3LYP) =  -241.559852425     A.U. after   18 cycles
 SCF Done:  E(UB3LYP) =  -241.559873389     A.U. after   18 cycles
 SCF Done:  E(UB3LYP) =  -241.559874272     A.U. after   12 cycles
 SCF Done:  E(UB3LYP) =  -241.559874333     A.U. after   18 cycles
 Optimization completed.
    -- Stationary point found.
 Normal termination of Gaussian 09 at Sat Mar 12 01:12:07 2005.

 ----------------------------------------------------------------------
 #P Geom=AllCheck Guess=TCheck SCRF=Check GenChk UB3LYP/Aug-CC-pVDZ Fre
 q
 ----------------------------------------------------------------------

 1H-1,2,3-Triazole-5-UB3LYP-aug-cc-pVDZ-Doublet
 ----------------------------------------------
 Redundant internal coordinates taken from checkpoint file:
 /home/ubuntu/g09/Gau-25473.chk
 Charge =  0 Multiplicity = 2

                         Standard orientation:
 ---------------------------------------------------------------------
 Center     Atomic      Atomic             Coordinates (Angstroms)
 Number     Number       Type             X           Y           Z
 ---------------------------------------------------------------------
      1          6           0        0.031660   -1.175544   -0.000420
      2          6           0        1.138965   -0.359877    0.000258
      3          1           0        2.194409   -0.596910    0.000404
      4          7           0       -1.044434   -0.367383    0.000223
      5          1           0       -2.028083   -0.600612    0.000441
      6          7           0       -0.648386    0.929844   -0.000098
      7          7           0        0.665667    0.924688   -0.000106
 ---------------------------------------------------------------------

 SCF Done:  E(UB3LYP) =  -241.559874333     A.U. after    1 cycles

 The electronic state is 2-A.
 Alpha  occ. eigenvalues --  -14.44395 -14.41208 -14.38066 -10.28231 -10.23608
 Alpha  occ. eigenvalues --   -1.12087  -0.92688  -0.82844  -0.66962  -0.64363
 Alpha  occ. eigenvalues --   -0.56166  -0.48648  -0.48011  -0.38685  -0.32806
 Alpha  occ. eigenvalues --   -0.32179  -0.29642  -0.28772
 Alpha virt. eigenvalues --   -0.03205  -0.01884   0.00670   0.01481   0.03395
 Alpha virt. eigenvalues --    0.04843   0.05390   0.05980   0.07789   0.09094
 Alpha virt. eigenvalues --    0.09298   0.10746   0.11121   0.11719   0.13410

  Beta  occ. eigenvalues --  -14.44366 -14.41122 -14.37886 -10.26636 -10.23570
  Beta  occ. eigenvalues --   -1.11480  -0.92188  -0.81592  -0.66335  -0.63707
  Beta  occ. eigenvalues --   -0.54778  -0.48425  -0.47422  -0.36306  -0.32634
  Beta  occ. eigenvalues --   -0.29133  -0.28058
  Beta virt. eigenvalues --   -0.16460  -0.02627  -0.01776   0.00734   0.02507
  Beta virt. eigenvalues --    0.04047   0.04883   0.05441   0.06064   0.07898
  Beta virt. eigenvalues --    0.09192   0.09401   0.10835   0.11234   0.11764

 Mulliken atomic charges:
              1
     1  C   -0.077677
     2  C    0.793741
     3  H   -0.302476
     4  N    0.221680
     5  H   -0.107127
     6  N   -0.252583
     7  N   -0.275557
 Sum of Mulliken atomic charges =   0.00000

 Dipole moment (field-independent basis, Debye):
    X=             -1.3320    Y=             -3.0810    Z=              0.0016  Tot=              3.3566
 Quadrupole moment (field-independent basis, Debye-Ang):
   XX=            -22.0074   YY=            -32.4670   ZZ=            -29.8266
   XY=              1.0172   XZ=             -0.0006   YZ=             -0.0012

  Exact polarizability:  51.237   0.007  51.251   0.002   0.011  30.804
 Approx polarizability:  86.009   1.486  93.479   0.004   0.018  43.473

                     1                      2                      3
                     A                      A                      A
 Frequencies --   523.6614               621.5258               716.6955
 Red. masses --     4.3130                 1.4809                 4.5624
 Frc consts  --     0.6968                 0.3371                 1.3807
 IR Inten    --     0.9713                94.7574                 4.9358

                     4                      5                      6
                     A                      A                      A
 Frequencies --   822.7998               876.0372               940.5019
 Red. masses --     1.2353                 9.1937                 6.7162
 Frc consts  --     0.4927                 4.1571                 3.5002
 IR Inten    --    29.9986                19.1904                 0.9666

                     7                      8                      9
                     A                      A                      A
 Frequencies --  1025.2906              1086.8699              1173.8551
 Red. masses --     4.4084                 1.6647                 4.1623
 Frc consts  --     2.7304                 1.1587                 3.3792
 IR Inten    --    19.6351                20.1439                23.0002

                    10                     11                     12
                     A                      A                      A
 Frequencies --  1236.0320              1318.7059              1426.0549
 Red. masses --     9.0865                 1.9480                 5.1042
 Frc consts  --     8.1791                 1.9959                 6.1158
 IR Inten    --     0.3229                 5.1746                 2.4189

                    13                     14                     15
                     A                      A                      A
 Frequencies --  1475.7603              3299.0402              3644.8497
 Red. masses --     2.6440                 1.0994                 1.0825
 Frc consts  --     3.3927                 7.0502                 8.4726
 IR Inten    --     4.2296                 0.9746               103.2256

 - Thermochemistry -
 -------------------
 Temperature   298.150 Kelvin.  Pressure   1.00000 Atm.
 Atom     1 has atomic number  6 and mass  12.00000

 Molecular mass:    68.02487 amu.
 Principal axes and moments of inertia in atomic units:
                           1         2         3
     Eigenvalues --   160.01200 185.49977 345.51174
           X            0.99991  -0.01334   0.00000
           Y            0.01334   0.99991  -0.00001
           Z            0.00000   0.00001   1.00000
 This molecule is an asymmetric top.
 Rotational symmetry number  1.
 Rotational temperatures (Kelvin)      0.54130     0.46692     0.25068
 Rotational constants (GHZ):          11.27879     9.72908     5.22339
 Zero-point vibrational energy     120749.1 (Joules/Mol)
                                   28.85974 (Kcal/Mol)
 Warning -- explicit consideration of   1 degrees of freedom as
           vibrations may cause significant error
 Vibrational temperatures:    753.43   894.24  1031.16  1183.82  1260.42
          (Kelvin)           1353.17  1475.16  1563.76  1688.91  1778.37
                             1897.32  2051.77  2123.29  4746.58  5244.12

 Zero-point correction=                           0.045991 (Hartree/Particle)
 Thermal correction to Energy=                    0.049578
 Thermal correction to Enthalpy=                  0.050522
 Thermal correction to Gibbs Free Energy=         0.019239
 Sum of electronic and zero-point Energies=           -241.513883
 Sum of electronic and thermal Energies=              -241.510296
 Sum of electronic and thermal Enthalpies=            -241.509352
 Sum of electronic and thermal Free Energies=         -241.540635

                     E (Thermal)             CV                S
                      KCal/Mol        Cal/Mol-Kelvin    Cal/Mol-Kelvin
 Total                   31.111             11.902             65.841
 Electronic               0.000              0.000              1.377
 Translational            0.889              2.981             38.570
 Rotational               0.889              2.981             23.843
 Vibrational             29.333              5.941              2.051
 Vibration     1          0.879              1.198              0.602

 Optimization completed.
    -- Stationary point found.
 Normal termination of Gaussian 09 at Sat Mar 12 01:13:02 2005.
