 Gaussian 09, Revision B.01,
 Gaussian 09:  EM64L-G09RevB.01 12-Aug-2010

 ----------------------------------------------------------------------
 #p Temperature=298.15 opt=(maxcycles=1024) SCF=(maxcycles=1024) freq U
 B3LYP/aug-cc-pVDZ
 ----------------------------------------------------------------------

 --------------------------------------------------
 1H-1,2,3-Triazole-5-N2+-UB3LYP-aug-cc-pVDZ-Singlet
 --------------------------------------------------
 Symbolic Z-matrix:
 Charge =  1 Multiplicity = 1

 SCF Done:  E(UB3LYP) =  -350.795736815     A.U. after   15 cycles
 SCF Done:  E(UB3LYP) =  -350.818131367     A.U. after   13 cycles
 SCF Done:  E(UB3LYP) =  -350.819252491     A.U. after   15 cycles
 SCF Done:  E(UB3LYP) =  -350.817903443     A.U. after   16 cycles
 SCF Done:  E(UB3LYP) =  -350.819951621     A.U. after   15 cycles
 SCF Done:  E(UB3LYP) =  -350.820227944     A.U. after   12 cycles
 SCF Done:  E(UB3LYP) =  -350.820237531     A.U. after   10 cycles
 SCF Done:  E(UB3LYP) =  -350.820239315     A.U. after    9 cycles
 SCF Done:  E(UB3LYP) =  -350.820239407     A.U. after   18 cycles
 Optimization completed.
    -- Stationary point found.
 Normal termination of Gaussian 09 at Wed Apr 11 23:23:22 2018.

 ----------------------------------------------------------------------
 #P Geom=AllCheck Guess=TCheck SCRF=Check GenChk UB3LYP/Aug-CC-pVDZ Fre
 q
 ----------------------------------------------------------------------

 1H-1,2,3-Triazole-5-N2+-UB3LYP-aug-cc-pVDZ-Singlet
 --------------------------------------------------
 Redundant internal coordinates taken from checkpoint file:
 /home/ubuntu/g09/Gau-19896.chk
 Charge =  1 Multiplicity = 1

                         Standard orientation:
 ---------------------------------------------------------------------
 Center     Atomic      Atomic             Coordinates (Angstroms)
 Number     Number       Type             X           Y           Z
 ---------------------------------------------------------------------
      1          7           0        1.647596    0.005637   -0.000137
      2          7           0        2.766226    0.009910   -0.000074
      3          6           0        0.301291    0.053894   -0.000117
      4          6           0       -0.567820    1.152723    0.000230
      5          1           0       -0.347304    2.216370    0.000414
      6          7           0       -0.508903   -1.056438    0.000448
      7          1           0       -0.274877   -2.048877    0.000564
      8          7           0       -1.771963   -0.665941   -0.000453
      9          7           0       -1.815619    0.648663   -0.000022
 ---------------------------------------------------------------------

 SCF Done:  E(UB3LYP) =  -350.820239407     A.U. after    1 cycles

 The electronic state is 1-A.
 Alpha  occ. eigenvalues --  -14.77279 -14.73460 -14.67624 -14.64442 -14.59256
 Alpha  occ. eigenvalues --  -10.54915 -10.47937  -1.42284  -1.35295  -1.16818
 Alpha  occ. eigenvalues --   -1.12572  -1.00088  -0.89231  -0.87201  -0.78009
 Alpha  occ. eigenvalues --   -0.77921  -0.74682  -0.73129  -0.70383  -0.69522
 Alpha  occ. eigenvalues --   -0.56750  -0.54661  -0.52576  -0.50329
 Alpha virt. eigenvalues --   -0.34035  -0.33287  -0.22714  -0.18156  -0.17476
 Alpha virt. eigenvalues --   -0.14811  -0.12508  -0.11879  -0.11277  -0.09506
 Alpha virt. eigenvalues --   -0.08556  -0.06417  -0.05751  -0.05238  -0.05063

  Beta  occ. eigenvalues --  -14.77279 -14.73460 -14.67624 -14.64442 -14.59256
  Beta  occ. eigenvalues --  -10.54915 -10.47937  -1.42284  -1.35295  -1.16818
  Beta  occ. eigenvalues --   -1.12572  -1.00088  -0.89231  -0.87201  -0.78009
  Beta  occ. eigenvalues --   -0.77921  -0.74682  -0.73129  -0.70383  -0.69522
  Beta  occ. eigenvalues --   -0.56750  -0.54661  -0.52576  -0.50329
  Beta virt. eigenvalues --   -0.34035  -0.33287  -0.22714  -0.18156  -0.17476
  Beta virt. eigenvalues --   -0.14811  -0.12508  -0.11879  -0.11277  -0.09506
  Beta virt. eigenvalues --   -0.08556  -0.06417  -0.05751  -0.05238  -0.05063

 Mulliken atomic charges:
              1
     1  N    0.601951
     2  N   -0.390041
     3  C    0.612267
     4  C    0.831102
     5  H   -0.427012
     6  N    0.181721
     7  H   -0.051570
     8  N   -0.077548
     9  N   -0.280871
 Sum of Mulliken atomic charges =   1.00000

 Dipole moment (field-independent basis, Debye):
    X=              4.5970    Y=             -0.9005    Z=              0.0012  Tot=              4.6843
 Quadrupole moment (field-independent basis, Debye-Ang):
   XX=            -32.3062   YY=            -24.7463   ZZ=            -36.5090
   XY=              0.2417   XZ=             -0.0016   YZ=             -0.0012

  Exact polarizability:  93.895  -1.804  50.714   0.001   0.001  30.005
 Approx polarizability: 220.231  -6.726  88.468   0.009   0.002  45.768

                     1                      2                      3
                     A                      A                      A
 Frequencies --   170.1506               191.1824               495.5509
 Red. masses --    10.8777                 7.9961                10.1631
 Frc consts  --     0.1855                 0.1722                 1.4705
 IR Inten    --     8.6905                 6.4064                 0.4965

                     4                      5                      6
                     A                      A                      A
 Frequencies --   518.0335               585.8552               587.1280
 Red. masses --     9.0776                 3.4391                10.0985
 Frc consts  --     1.4353                 0.6955                 2.0510
 IR Inten    --     2.0440                10.8907                 4.8793

                     7                      8                      9
                     A                      A                      A
 Frequencies --   629.6367               692.8054               889.8977
 Red. masses --     2.1138                 2.3528                 1.3737
 Frc consts  --     0.4937                 0.6654                 0.6410
 IR Inten    --    65.5095                26.2874                16.5585

                    10                     11                     12
                     A                      A                      A
 Frequencies --   955.9329              1036.8345              1096.9186
 Red. masses --     7.4775                 3.5260                 2.9502
 Frc consts  --     4.0259                 2.2333                 2.0915
 IR Inten    --     9.8203                52.0183                57.9250

                    13                     14                     15
                     A                      A                      A
 Frequencies --  1148.4599              1198.0428              1324.1577
 Red. masses --     3.1506                 3.3148                 5.0271
 Frc consts  --     2.4483                 2.8032                 5.1934
 IR Inten    --    21.9564                11.9642                20.0850

                    16                     17                     18
                     A                      A                      A
 Frequencies --  1381.1353              1409.6877              1504.0018
 Red. masses --     2.7658                 4.5737                 2.9396
 Frc consts  --     3.1084                 5.3550                 3.9177
 IR Inten    --    40.8884                20.5132                58.4579

                    19                     20                     21
                     A                      A                      A
 Frequencies --  2317.1981              3269.1586              3546.8433
 Red. masses --    13.9642                 1.1034                 1.0861
 Frc consts  --    44.1768                 6.9477                 8.0501
 IR Inten    --   267.9030                33.1207               225.4390

 - Thermochemistry -
 -------------------
 Temperature   298.150 Kelvin.  Pressure   1.00000 Atm.
 Atom     1 has atomic number  7 and mass  14.00307

 Molecular mass:    96.03102 amu.
 Principal axes and moments of inertia in atomic units:
                           1         2         3
     Eigenvalues --   188.88506 871.594141060.47915
           X            1.00000  -0.00109   0.00000
           Y            0.00109   1.00000   0.00000
           Z            0.00000   0.00000   1.00000
 This molecule is an asymmetric top.
 Rotational symmetry number  1.
 Rotational temperatures (Kelvin)      0.45855     0.09937     0.08167
 Rotational constants (GHZ):           9.55471     2.07062     1.70182
 Zero-point vibrational energy     149225.8 (Joules/Mol)
                                   35.66583 (Kcal/Mol)
 Warning -- explicit consideration of   6 degrees of freedom as
           vibrations may cause significant error
 Vibrational temperatures:    244.81   275.07   712.99   745.33   842.91
          (Kelvin)            844.75   905.91   996.79  1280.36  1375.37
                             1491.77  1578.22  1652.38  1723.71  1905.17
                             1987.14  2028.22  2163.92  3333.93  4703.58
                             5103.11

 Zero-point correction=                           0.056837 (Hartree/Particle)
 Thermal correction to Energy=                    0.062112
 Thermal correction to Enthalpy=                  0.063056
 Thermal correction to Gibbs Free Energy=         0.027696
 Sum of electronic and zero-point Energies=           -350.763402
 Sum of electronic and thermal Energies=              -350.758128
 Sum of electronic and thermal Enthalpies=            -350.757184
 Sum of electronic and thermal Free Energies=         -350.792543

                     E (Thermal)             CV                S
                      KCal/Mol        Cal/Mol-Kelvin    Cal/Mol-Kelvin
 Total                   38.976             18.536             74.421
 Electronic               0.000              0.000              0.000
 Translational            0.889              2.981             39.597
 Rotational               0.889              2.981             26.659
 Vibrational             37.198             12.575              8.164
 Vibration     1          0.625              1.879              2.434
 Vibration     2          0.634              1.852              2.216
 Vibration     3          0.851              1.260              0.669
 Vibration     4          0.873              1.210              0.615
 Vibration     5          0.943              1.062              0.475
 Vibration     6          0.944              1.059              0.472

 Optimization completed.
    -- Stationary point found.
 Normal termination of Gaussian 09 at Wed Apr 11 23:25:39 2018.
