 Gaussian 09, Revision B.01,
 Gaussian 09:  EM64L-G09RevB.01 12-Aug-2010

 ----------------------------------------------------------------------
 #p Temperature=298.15 opt=(maxcycles=1024) SCF=(maxcycles=1024) freq U
 B3LYP/aug-cc-pVDZ
 ----------------------------------------------------------------------

 -------------------------------------------------
 1H-1,2,3-Triazole-5-N2-UB3LYP-aug-cc-pVDZ-Doublet
 -------------------------------------------------
 Symbolic Z-matrix:
 Charge =  0 Multiplicity = 2

 SCF Done:  E(UB3LYP) =  -351.058155229     A.U. after   23 cycles
 SCF Done:  E(UB3LYP) =  -351.080297950     A.U. after   20 cycles
 SCF Done:  E(UB3LYP) =  -351.082655021     A.U. after   20 cycles
 SCF Done:  E(UB3LYP) =  -351.082461469     A.U. after   23 cycles
 SCF Done:  E(UB3LYP) =  -351.082929592     A.U. after   23 cycles
 SCF Done:  E(UB3LYP) =  -351.083010264     A.U. after   23 cycles
 SCF Done:  E(UB3LYP) =  -351.083029978     A.U. after   17 cycles
 SCF Done:  E(UB3LYP) =  -351.083034074     A.U. after   24 cycles
 SCF Done:  E(UB3LYP) =  -351.083041410     A.U. after   17 cycles
 SCF Done:  E(UB3LYP) =  -351.083100548     A.U. after   18 cycles
 SCF Done:  E(UB3LYP) =  -351.105778463     A.U. after   17 cycles
 SCF Done:  E(UB3LYP) =  -351.107510849     A.U. after   15 cycles
 SCF Done:  E(UB3LYP) =  -351.108039519     A.U. after   19 cycles
 SCF Done:  E(UB3LYP) =  -351.108311432     A.U. after   19 cycles
 SCF Done:  E(UB3LYP) =  -351.108417623     A.U. after   20 cycles
 SCF Done:  E(UB3LYP) =  -351.108463690     A.U. after   14 cycles
 SCF Done:  E(UB3LYP) =  -351.108477667     A.U. after   20 cycles
 SCF Done:  E(UB3LYP) =  -351.108481301     A.U. after   20 cycles
 SCF Done:  E(UB3LYP) =  -351.108481811     A.U. after   11 cycles
 Optimization completed.
    -- Stationary point found.
 Normal termination of Gaussian 09 at Sat Mar 12 01:07:34 2005.

 ----------------------------------------------------------------------
 #P Geom=AllCheck Guess=TCheck SCRF=Check GenChk UB3LYP/Aug-CC-pVDZ Fre
 q
 ----------------------------------------------------------------------

 1H-1,2,3-Triazole-5-N2-UB3LYP-aug-cc-pVDZ-Doublet
 -------------------------------------------------
 Redundant internal coordinates taken from checkpoint file:
 /home/ubuntu/g09/Gau-20625.chk
 Charge =  0 Multiplicity = 2

                         Standard orientation:
 ---------------------------------------------------------------------
 Center     Atomic      Atomic             Coordinates (Angstroms)
 Number     Number       Type             X           Y           Z
 ---------------------------------------------------------------------
      1          7           0        1.696516   -0.459860    0.000563
      2          7           0        2.606408    0.307851   -0.000545
      3          6           0        0.331365   -0.081144    0.000100
      4          6           0       -0.378895    1.108185    0.000154
      5          1           0       -0.014059    2.128106    0.000334
      6          7           0       -0.629652   -1.042288    0.000029
      7          1           0       -0.509528   -2.048305   -0.000371
      8          7           0       -1.853802   -0.501725   -0.000241
      9          7           0       -1.703932    0.804301   -0.000018
 ---------------------------------------------------------------------

 SCF Done:  E(UB3LYP) =  -351.108481811     A.U. after    1 cycles

 The electronic state is 2-A.
 Alpha  occ. eigenvalues --  -14.45848 -14.45430 -14.42987 -14.42686 -14.38831
 Alpha  occ. eigenvalues --  -10.30654 -10.25229  -1.14023  -1.10297  -0.94373
 Alpha  occ. eigenvalues --   -0.86078  -0.74375  -0.68181  -0.64801  -0.56323
 Alpha  occ. eigenvalues --   -0.51591  -0.50314  -0.49135  -0.45745  -0.44385
 Alpha  occ. eigenvalues --   -0.37107  -0.33999  -0.30765  -0.30062  -0.24223
 Alpha virt. eigenvalues --   -0.10410  -0.03138  -0.02060   0.00418   0.02685
 Alpha virt. eigenvalues --    0.03020   0.04511   0.04711   0.05558   0.06563
 Alpha virt. eigenvalues --    0.08035   0.08114   0.09472   0.10237   0.10325

  Beta  occ. eigenvalues --  -14.45867 -14.45092 -14.42718 -14.41345 -14.38805
  Beta  occ. eigenvalues --  -10.30298 -10.25240  -1.13936  -1.08533  -0.94250
  Beta  occ. eigenvalues --   -0.85486  -0.72889  -0.68033  -0.64410  -0.55595
  Beta  occ. eigenvalues --   -0.51464  -0.49211  -0.46080  -0.45097  -0.40863
  Beta  occ. eigenvalues --   -0.36986  -0.33984  -0.30440  -0.29748
  Beta virt. eigenvalues --   -0.09667  -0.09274  -0.03106  -0.01951   0.00466
  Beta virt. eigenvalues --    0.02778   0.03397   0.04537   0.04703   0.05637
  Beta virt. eigenvalues --    0.06692   0.08016   0.08159   0.09469   0.10358

 Mulliken atomic charges:
              1
     1  N    0.176751
     2  N   -0.536473
     3  C    0.340032
     4  C    1.011226
     5  H   -0.438972
     6  N    0.162210
     7  H   -0.122700
     8  N   -0.253865
     9  N   -0.338209
 Sum of Mulliken atomic charges =   0.00000

 Dipole moment (field-independent basis, Debye):
    X=              1.0715    Y=             -1.6106    Z=              0.0001  Tot=              1.9345
 Quadrupole moment (field-independent basis, Debye-Ang):
   XX=            -54.2686   YY=            -33.3877   ZZ=            -39.4740
   XY=              1.6894   XZ=              0.0005   YZ=              0.0038

  Exact polarizability:  86.010   2.294  60.104  -0.004  -0.002  35.713
 Approx polarizability: 145.691   8.161 103.417  -0.013  -0.007  54.104

                     1                      2                      3
                     A                      A                      A
 Frequencies --   133.1820               223.5467               280.0587
 Red. masses --    10.5007                 7.5837                11.7940
 Frc consts  --     0.1097                 0.2233                 0.5450
 IR Inten    --     3.2723                 7.9499                 7.4494

                     4                      5                      6
                     A                      A                      A
 Frequencies --   491.8054               620.6139               660.9827
 Red. masses --     8.9423                 2.0922                 2.4815
 Frc consts  --     1.2743                 0.4748                 0.6388
 IR Inten    --    10.1695                39.9230                39.2372

                     7                      8                      9
                     A                      A                      A
 Frequencies --   661.1767               721.4058               863.8613
 Red. masses --     7.1542                 3.4318                 1.3748
 Frc consts  --     1.8427                 1.0523                 0.6045
 IR Inten    --    27.2326                 9.2321                23.7991

                    10                     11                     12
                     A                      A                      A
 Frequencies --   974.5954              1055.8745              1080.7474
 Red. masses --     6.9127                 4.7361                 2.0406
 Frc consts  --     3.8685                 3.1110                 1.4043
 IR Inten    --    10.3194                12.1496                51.1260

                    13                     14                     15
                     A                      A                      A
 Frequencies --  1132.9743              1213.5815              1283.5688
 Red. masses --     2.3102                 5.9840                 6.0829
 Frc consts  --     1.7472                 5.1925                 5.9047
 IR Inten    --     5.2337                 9.0282                 3.7380

                    16                     17                     18
                     A                      A                      A
 Frequencies --  1369.5911              1452.7786              1542.1245
 Red. masses --     2.4634                 5.5010                 3.5300
 Frc consts  --     2.7225                 6.8405                 4.9461
 IR Inten    --     1.7162                 5.0312                 1.3140

                    19                     20                     21
                     A                      A                      A
 Frequencies --  1818.5084              3284.6926              3617.3304
 Red. masses --    13.6736                 1.1002                 1.0832
 Frc consts  --    26.6419                 6.9941                 8.3510
 IR Inten    --    24.1096                 2.8811               109.3419

 - Thermochemistry -
 -------------------
 Temperature   298.150 Kelvin.  Pressure   1.00000 Atm.
 Atom     1 has atomic number  7 and mass  14.00307

 Molecular mass:    96.03102 amu.
 Principal axes and moments of inertia in atomic units:
                           1         2         3
     Eigenvalues --   198.86247 832.297381031.15977
           X            0.99998   0.00566   0.00000
           Y           -0.00566   0.99998   0.00003
           Z            0.00000  -0.00003   1.00000
 This molecule is an asymmetric top.
 Rotational symmetry number  1.
 Rotational temperatures (Kelvin)      0.43555     0.10407     0.08400
 Rotational constants (GHZ):           9.07532     2.16839     1.75021
 Zero-point vibrational energy     146440.9 (Joules/Mol)
                                   35.00021 (Kcal/Mol)
 Warning -- explicit consideration of   5 degrees of freedom as
           vibrations may cause significant error
 Vibrational temperatures:    191.62   321.63   402.94   707.60   892.92
          (Kelvin)            951.01   951.28  1037.94  1242.90  1402.22
                             1519.17  1554.95  1630.10  1746.07  1846.77
                             1970.53  2090.22  2218.77  2616.42  4725.93
                             5204.53

 Zero-point correction=                           0.055776 (Hartree/Particle)
 Thermal correction to Energy=                    0.061223
 Thermal correction to Enthalpy=                  0.062167
 Thermal correction to Gibbs Free Energy=         0.025753
 Sum of electronic and zero-point Energies=           -351.052705
 Sum of electronic and thermal Energies=              -351.047259
 Sum of electronic and thermal Enthalpies=            -351.046314
 Sum of electronic and thermal Free Energies=         -351.082728

                     E (Thermal)             CV                S
                      KCal/Mol        Cal/Mol-Kelvin    Cal/Mol-Kelvin
 Total                   38.418             18.727             76.640
 Electronic               0.000              0.000              1.377
 Translational            0.889              2.981             39.597
 Rotational               0.889              2.981             26.637
 Vibrational             36.641             12.766              9.028
 Vibration     1          0.613              1.920              2.900
 Vibration     2          0.649              1.805              1.930
 Vibration     3          0.680              1.710              1.533
 Vibration     4          0.848              1.268              0.679
 Vibration     5          0.981              0.988              0.416

 Optimization completed.
    -- Stationary point found.
 Normal termination of Gaussian 09 at Sat Mar 12 01:09:58 2005.
