 Gaussian 09, Revision B.01,
 Gaussian 09:  EM64L-G09RevB.01 12-Aug-2010

 ----------------------------------------------------------------------
 #p Temperature=298.15 opt=(maxcycles=1024) SCF=(maxcycles=1024) freq U
 B3LYP/aug-cc-pVDZ
 ----------------------------------------------------------------------

 ----------------------------------------------
 1H-1,2,3-Triazole-4-UB3LYP-aug-cc-pVDZ-Doublet
 ----------------------------------------------
 Symbolic Z-matrix:
 Charge =  0 Multiplicity = 2

 SCF Done:  E(UB3LYP) =  -241.542053043     A.U. after   17 cycles
 SCF Done:  E(UB3LYP) =  -241.560898599     A.U. after   17 cycles
 SCF Done:  E(UB3LYP) =  -241.562368729     A.U. after   17 cycles
 SCF Done:  E(UB3LYP) =  -241.562443862     A.U. after   14 cycles
 SCF Done:  E(UB3LYP) =  -241.562326861     A.U. after   17 cycles
 SCF Done:  E(UB3LYP) =  -241.562497410     A.U. after   17 cycles
 SCF Done:  E(UB3LYP) =  -241.562514928     A.U. after   13 cycles
 SCF Done:  E(UB3LYP) =  -241.562516868     A.U. after   17 cycles
 SCF Done:  E(UB3LYP) =  -241.562518311     A.U. after   12 cycles
 Optimization completed.
    -- Stationary point found.
 Normal termination of Gaussian 09 at Sat Mar 12 00:43:30 2005.

 ----------------------------------------------------------------------
 #P Geom=AllCheck Guess=TCheck SCRF=Check GenChk UB3LYP/Aug-CC-pVDZ Fre
 q
 ----------------------------------------------------------------------

 1H-1,2,3-Triazole-4-UB3LYP-aug-cc-pVDZ-Doublet
 ----------------------------------------------
 Redundant internal coordinates taken from checkpoint file:
 /home/ubuntu/g09/Gau-19579.chk
 Charge =  0 Multiplicity = 2

                         Standard orientation:
 ---------------------------------------------------------------------
 Center     Atomic      Atomic             Coordinates (Angstroms)
 Number     Number       Type             X           Y           Z
 ---------------------------------------------------------------------
      1          6           0       -0.165623   -1.182279   -0.000159
      2          7           0        0.650191    0.779526   -0.000177
      3          1           0        1.216439    1.618970   -0.000134
      4          6           0        1.046385   -0.523054    0.000152
      5          1           0        2.078640   -0.845705    0.000326
      6          7           0       -0.693890    0.901489    0.000136
      7          7           0       -1.181965   -0.329767    0.000019
 ---------------------------------------------------------------------

 SCF Done:  E(UB3LYP) =  -241.562518311     A.U. after    1 cycles

 The electronic state is 2-A.
 Alpha  occ. eigenvalues --  -14.44556 -14.41451 -14.37720 -10.26124 -10.25416
 Alpha  occ. eigenvalues --   -1.12140  -0.92806  -0.83045  -0.67690  -0.63292
 Alpha  occ. eigenvalues --   -0.57458  -0.49034  -0.48744  -0.38621  -0.33003
 Alpha  occ. eigenvalues --   -0.30776  -0.29185  -0.28783
 Alpha virt. eigenvalues --   -0.03657  -0.02446   0.00475   0.01989   0.03194
 Alpha virt. eigenvalues --    0.04638   0.05602   0.06280   0.07029   0.08732
 Alpha virt. eigenvalues --    0.09279   0.10662   0.11263   0.11456   0.13582

  Beta  occ. eigenvalues --  -14.44510 -14.41260 -14.37596 -10.26011 -10.23811
  Beta  occ. eigenvalues --   -1.11662  -0.92449  -0.81824  -0.67036  -0.62323
  Beta  occ. eigenvalues --   -0.56551  -0.48535  -0.48302  -0.36649  -0.32729
  Beta  occ. eigenvalues --   -0.29826  -0.27937
  Beta virt. eigenvalues --   -0.13235  -0.03643  -0.02427   0.00634   0.03517
  Beta virt. eigenvalues --    0.03558   0.04672   0.05631   0.06586   0.07089
  Beta virt. eigenvalues --    0.08799   0.09639   0.10912   0.11378   0.11468

 Mulliken atomic charges:
              1
     1  C   -0.097679
     2  N    0.205057
     3  H   -0.105176
     4  C    0.814815
     5  H   -0.317094
     6  N   -0.298851
     7  N   -0.201072
 Sum of Mulliken atomic charges =   0.00000

 Dipole moment (field-independent basis, Debye):
    X=              4.5045    Y=              0.7508    Z=              0.0002  Tot=              4.5667
 Quadrupole moment (field-independent basis, Debye-Ang):
   XX=            -27.9029   YY=            -27.3285   ZZ=            -29.7897
   XY=              2.3042   XZ=              0.0008   YZ=             -0.0009

  Exact polarizability:  51.342  -1.362  49.339   0.001   0.002  29.850
 Approx polarizability:  88.905  -3.598  84.951   0.002   0.004  42.804

                     1                      2                      3
                     A                      A                      A
 Frequencies --   599.7430               620.2050               711.1836
 Red. masses --     4.8995                 1.8528                 2.4585
 Frc consts  --     1.0383                 0.4199                 0.7326
 IR Inten    --    16.6533                44.3730                29.9554

                     4                      5                      6
                     A                      A                      A
 Frequencies --   768.5201               866.1059               970.1852
 Red. masses --     1.2814                 8.7642                 5.5161
 Frc consts  --     0.4459                 3.8735                 3.0591
 IR Inten    --    25.6392                 4.7270                 3.6691

                     7                      8                      9
                     A                      A                      A
 Frequencies --  1029.9728              1093.2621              1181.5252
 Red. masses --     2.4491                 1.9898                 4.6864
 Frc consts  --     1.5308                 1.4012                 3.8545
 IR Inten    --    30.6587                26.8593                 9.9422

                    10                     11                     12
                     A                      A                      A
 Frequencies --  1229.1347              1318.1804              1417.8307
 Red. masses --     5.8392                 3.8742                 3.7312
 Frc consts  --     5.1976                 3.9662                 4.4192
 IR Inten    --     0.4295                20.9931                 0.7725

                    13                     14                     15
                     A                      A                      A
 Frequencies --  1502.0118              3302.3212              3622.2529
 Red. masses --     2.4473                 1.1004                 1.0828
 Frc consts  --     3.2530                 7.0706                 8.3705
 IR Inten    --     3.3702                 3.1107                76.0592

 - Thermochemistry -
 -------------------
 Temperature   298.150 Kelvin.  Pressure   1.00000 Atm.
 Atom     1 has atomic number  6 and mass  12.00000

 Molecular mass:    68.02487 amu.
 Principal axes and moments of inertia in atomic units:
                           1         2         3
     Eigenvalues --   160.03024 183.51951 343.54974
           X            0.99930   0.03738   0.00001
           Y           -0.03738   0.99930  -0.00001
           Z           -0.00001   0.00001   1.00000
 This molecule is an asymmetric top.
 Rotational symmetry number  1.
 Rotational temperatures (Kelvin)      0.54123     0.47196     0.25211
 Rotational constants (GHZ):          11.27750     9.83406     5.25322
 Zero-point vibrational energy     121016.8 (Joules/Mol)
                                   28.92372 (Kcal/Mol)
 Warning -- explicit consideration of   2 degrees of freedom as
           vibrations may cause significant error
 Vibrational temperatures:    862.90   892.34  1023.23  1105.73  1246.13
          (Kelvin)           1395.88  1481.90  1572.96  1699.95  1768.45
                             1896.57  2039.94  2161.06  4751.30  5211.61

 Zero-point correction=                           0.046093 (Hartree/Particle)
 Thermal correction to Energy=                    0.049647
 Thermal correction to Enthalpy=                  0.050591
 Thermal correction to Gibbs Free Energy=         0.019368
 Sum of electronic and zero-point Energies=           -241.516425
 Sum of electronic and thermal Energies=              -241.512871
 Sum of electronic and thermal Enthalpies=            -241.511927
 Sum of electronic and thermal Free Energies=         -241.543150

                     E (Thermal)             CV                S
                      KCal/Mol        Cal/Mol-Kelvin    Cal/Mol-Kelvin
 Total                   31.154             11.803             65.715
 Electronic               0.000              0.000              1.377
 Translational            0.889              2.981             38.570
 Rotational               0.889              2.981             23.827
 Vibrational             29.377              5.841              1.941
 Vibration     1          0.958              1.032              0.450
 Vibration     2          0.980              0.989              0.416

 Optimization completed.
    -- Stationary point found.
 Normal termination of Gaussian 09 at Sat Mar 12 00:44:26 2005.
