 Gaussian 09, Revision B.01,
 Gaussian 09:  EM64L-G09RevB.01 12-Aug-2010

 ----------------------------------------------------------------------
 #p Temperature=298.15 opt=(maxcycles=1024) SCF=(maxcycles=1024) freq U
 B3LYP/aug-cc-pVDZ
 ----------------------------------------------------------------------

 --------------------------------------------------
 1H-1,2,4-Triazole-3-N2+-UB3LYP-aug-cc-pVDZ-Singlet
 --------------------------------------------------
 Symbolic Z-matrix:
 Charge =  1 Multiplicity = 1

 SCF Done:  E(UB3LYP) =  -350.818521023     A.U. after   15 cycles
 SCF Done:  E(UB3LYP) =  -350.857872466     A.U. after   12 cycles
 SCF Done:  E(UB3LYP) =  -350.863474726     A.U. after   15 cycles
 SCF Done:  E(UB3LYP) =  -350.863745057     A.U. after   15 cycles
 SCF Done:  E(UB3LYP) =  -350.863652501     A.U. after   12 cycles
 SCF Done:  E(UB3LYP) =  -350.863791936     A.U. after   11 cycles
 SCF Done:  E(UB3LYP) =  -350.863805142     A.U. after   10 cycles
 SCF Done:  E(UB3LYP) =  -350.863798323     A.U. after   15 cycles
 SCF Done:  E(UB3LYP) =  -350.863807668     A.U. after   10 cycles
 Optimization completed.
    -- Stationary point found.
 Normal termination of Gaussian 09 at Wed Apr 11 23:59:48 2018.

 ----------------------------------------------------------------------
 #P Geom=AllCheck Guess=TCheck SCRF=Check GenChk UB3LYP/Aug-CC-pVDZ Fre
 q
 ----------------------------------------------------------------------

 1H-1,2,4-Triazole-3-N2+-UB3LYP-aug-cc-pVDZ-Singlet
 --------------------------------------------------
 Redundant internal coordinates taken from checkpoint file:
 /home/ubuntu/g09/Gau-30517.chk
 Charge =  1 Multiplicity = 1

                         Standard orientation:
 ---------------------------------------------------------------------
 Center     Atomic      Atomic             Coordinates (Angstroms)
 Number     Number       Type             X           Y           Z
 ---------------------------------------------------------------------
      1          7           0        1.650842   -0.006797    0.000019
      2          7           0        2.760863    0.001564   -0.000086
      3          6           0        0.268558    0.016503    0.000151
      4          6           0       -1.670132    0.711639   -0.000021
      5          1           0       -2.580008    1.304881    0.000352
      6          7           0       -1.651493   -0.658678   -0.000230
      7          1           0       -2.433319   -1.312348    0.000179
      8          7           0       -0.410920   -1.131147    0.000131
      9          7           0       -0.431754    1.172004   -0.000021
 ---------------------------------------------------------------------

 SCF Done:  E(UB3LYP) =  -350.863807668     A.U. after    1 cycles

 The electronic state is 1-A.
 Alpha  occ. eigenvalues --  -14.76299 -14.73490 -14.66195 -14.62369 -14.57634
 Alpha  occ. eigenvalues --  -10.54576 -10.49104  -1.42025  -1.33828  -1.16446
 Alpha  occ. eigenvalues --   -1.11886  -1.01572  -0.88958  -0.81219  -0.78208
 Alpha  occ. eigenvalues --   -0.77164  -0.74802  -0.72511  -0.69929  -0.68008
 Alpha  occ. eigenvalues --   -0.57847  -0.54930  -0.52955  -0.51609
 Alpha virt. eigenvalues --   -0.32856  -0.31852  -0.22393  -0.16257  -0.16211
 Alpha virt. eigenvalues --   -0.14150  -0.12319  -0.11248  -0.10278  -0.08965
 Alpha virt. eigenvalues --   -0.07826  -0.06533  -0.05677  -0.04482  -0.03285

  Beta  occ. eigenvalues --  -14.76299 -14.73490 -14.66195 -14.62369 -14.57634
  Beta  occ. eigenvalues --  -10.54576 -10.49104  -1.42025  -1.33828  -1.16446
  Beta  occ. eigenvalues --   -1.11886  -1.01572  -0.88958  -0.81219  -0.78208
  Beta  occ. eigenvalues --   -0.77164  -0.74802  -0.72511  -0.69929  -0.68008
  Beta  occ. eigenvalues --   -0.57847  -0.54930  -0.52955  -0.51609
  Beta virt. eigenvalues --   -0.32856  -0.31852  -0.22393  -0.16257  -0.16211
  Beta virt. eigenvalues --   -0.14150  -0.12319  -0.11248  -0.10278  -0.08965
  Beta virt. eigenvalues --   -0.07826  -0.06533  -0.05677  -0.04482  -0.03285

 Mulliken atomic charges:
              1
     1  N    0.590233
     2  N   -0.388613
     3  C    0.376202
     4  C    0.920103
     5  H   -0.228502
     6  N    0.111049
     7  H   -0.037232
     8  N   -0.126451
     9  N   -0.216789
 Sum of Mulliken atomic charges =   1.00000

 Dipole moment (field-independent basis, Debye):
    X=             -1.6184    Y=             -0.8242    Z=              0.0007  Tot=              1.8161
 Quadrupole moment (field-independent basis, Debye-Ang):
   XX=             -9.2451   YY=            -36.1732   ZZ=            -36.3437
   XY=              1.4213   XZ=             -0.0019   YZ=              0.0001

  Exact polarizability:  87.736   0.868  47.133   0.001   0.000  29.647
 Approx polarizability: 164.056   7.887  83.514   0.004   0.000  44.983

                     1                      2                      3
                     A                      A                      A
 Frequencies --   178.1694               182.6342               501.0956
 Red. masses --     9.5733                 7.1228                11.7628
 Frc consts  --     0.1791                 0.1400                 1.7402
 IR Inten    --     1.0475                 6.6634                 7.1284

                     4                      5                      6
                     A                      A                      A
 Frequencies --   544.0669               593.5871               649.8704
 Red. masses --    11.1689                12.0760                 3.9741
 Frc consts  --     1.9479                 2.5069                 0.9889
 IR Inten    --     5.0971                17.3834                 5.5266

                     7                      8                      9
                     A                      A                      A
 Frequencies --   692.6320               751.5705               897.8671
 Red. masses --     9.1296                 1.1521                 1.4248
 Frc consts  --     2.5805                 0.3834                 0.6767
 IR Inten    --     1.7088                95.1511                12.1089

                    10                     11                     12
                     A                      A                      A
 Frequencies --   984.7503              1012.0835              1098.9083
 Red. masses --     8.2823                 4.5192                 2.3173
 Frc consts  --     4.7321                 2.7274                 1.6488
 IR Inten    --     9.9847                 6.9410                 3.2529

                    13                     14                     15
                     A                      A                      A
 Frequencies --  1181.0487              1280.4874              1337.7121
 Red. masses --     3.0864                 2.5399                 5.8055
 Frc consts  --     2.5365                 2.4537                 6.1209
 IR Inten    --    69.6881                12.3931                10.7279

                    16                     17                     18
                     A                      A                      A
 Frequencies --  1411.8820              1436.3224              1530.6406
 Red. masses --     7.8772                 2.5944                 2.8460
 Frc consts  --     9.2517                 3.1535                 3.9286
 IR Inten    --    88.7904                 8.9982                13.2071

                    19                     20                     21
                     A                      A                      A
 Frequencies --  2384.7865              3266.6699              3555.0331
 Red. masses --    13.9951                 1.1041                 1.0855
 Frc consts  --    46.8949                 6.9416                 8.0832
 IR Inten    --   101.9764                30.7758               247.0919

 - Thermochemistry -
 -------------------
 Temperature   298.150 Kelvin.  Pressure   1.00000 Atm.
 Atom     1 has atomic number  7 and mass  14.00307

 Molecular mass:    96.03102 amu.
 Principal axes and moments of inertia in atomic units:
                           1         2         3
     Eigenvalues --   188.40731 838.562411026.96972
           X            1.00000  -0.00096  -0.00001
           Y            0.00096   1.00000   0.00000
           Z            0.00001   0.00000   1.00000
 This molecule is an asymmetric top.
 Rotational symmetry number  1.
 Rotational temperatures (Kelvin)      0.45972     0.10329     0.08434
 Rotational constants (GHZ):           9.57893     2.15218     1.75735
 Zero-point vibrational energy     152355.3 (Joules/Mol)
                                   36.41379 (Kcal/Mol)
 Warning -- explicit consideration of   5 degrees of freedom as
           vibrations may cause significant error
 Vibrational temperatures:    256.35   262.77   720.96   782.79   854.04
          (Kelvin)            935.02   996.54  1081.34  1291.83  1416.83
                             1456.16  1581.08  1699.26  1842.33  1924.67
                             2031.38  2066.55  2202.25  3431.17  4700.00
                             5114.89

 Zero-point correction=                           0.058029 (Hartree/Particle)
 Thermal correction to Energy=                    0.063181
 Thermal correction to Enthalpy=                  0.064125
 Thermal correction to Gibbs Free Energy=         0.028977
 Sum of electronic and zero-point Energies=           -350.805779
 Sum of electronic and thermal Energies=              -350.800626
 Sum of electronic and thermal Enthalpies=            -350.799682
 Sum of electronic and thermal Free Energies=         -350.834830

                     E (Thermal)             CV                S
                      KCal/Mol        Cal/Mol-Kelvin    Cal/Mol-Kelvin
 Total                   39.647             17.959             73.975
 Electronic               0.000              0.000              0.000
 Translational            0.889              2.981             39.597
 Rotational               0.889              2.981             26.587
 Vibrational             37.869             11.997              7.791
 Vibration     1          0.629              1.869              2.348
 Vibration     2          0.630              1.863              2.301
 Vibration     3          0.856              1.248              0.655
 Vibration     4          0.899              1.153              0.557
 Vibration     5          0.951              1.045              0.461

 Optimization completed.
    -- Stationary point found.
 Normal termination of Gaussian 09 at Thu Apr 12 00:02:02 2018.
