 Gaussian 09, Revision B.01,
 Gaussian 09:  EM64L-G09RevB.01 12-Aug-2010

 ----------------------------------------------------------------------
 #p Temperature=298.15 opt=(maxcycles=1024) SCF=(maxcycles=1024) freq U
 B3LYP/aug-cc-pVDZ
 ----------------------------------------------------------------------

 -------------------------------------------------
 1H-1,2,4-Triazole-5-N2-UB3LYP-aug-cc-pVDZ-Doublet
 -------------------------------------------------
 Symbolic Z-matrix:
 Charge =  0 Multiplicity = 2

 SCF Done:  E(UB3LYP) =  -351.077090561     A.U. after   23 cycles
 SCF Done:  E(UB3LYP) =  -351.107347037     A.U. after   20 cycles
 SCF Done:  E(UB3LYP) =  -351.110921728     A.U. after   22 cycles
 SCF Done:  E(UB3LYP) =  -351.111198346     A.U. after   18 cycles
 SCF Done:  E(UB3LYP) =  -351.111209102     A.U. after   16 cycles
 SCF Done:  E(UB3LYP) =  -351.111281259     A.U. after   23 cycles
 SCF Done:  E(UB3LYP) =  -351.111284355     A.U. after   16 cycles
 SCF Done:  E(UB3LYP) =  -351.111309196     A.U. after   16 cycles
 SCF Done:  E(UB3LYP) =  -351.113370059     A.U. after   20 cycles
 SCF Done:  E(UB3LYP) =  -351.122655040     A.U. after   20 cycles
 SCF Done:  E(UB3LYP) =  -351.132931865     A.U. after   19 cycles
 SCF Done:  E(UB3LYP) =  -351.126675419     A.U. after   22 cycles
 SCF Done:  E(UB3LYP) =  -351.134868097     A.U. after   19 cycles
 SCF Done:  E(UB3LYP) =  -351.135184636     A.U. after   19 cycles
 SCF Done:  E(UB3LYP) =  -351.135276125     A.U. after   19 cycles
 SCF Done:  E(UB3LYP) =  -351.135453128     A.U. after   14 cycles
 SCF Done:  E(UB3LYP) =  -351.135462139     A.U. after   13 cycles
 SCF Done:  E(UB3LYP) =  -351.135464730     A.U. after   22 cycles
 SCF Done:  E(UB3LYP) =  -351.135465309     A.U. after   10 cycles
 Optimization completed.
    -- Stationary point found.
 Normal termination of Gaussian 09 at Sat Mar 12 01:46:45 2005.

 ----------------------------------------------------------------------
 #P Geom=AllCheck Guess=TCheck SCRF=Check GenChk UB3LYP/Aug-CC-pVDZ Fre
 q
 ----------------------------------------------------------------------

 1H-1,2,4-Triazole-5-N2-UB3LYP-aug-cc-pVDZ-Doublet
 -------------------------------------------------
 Redundant internal coordinates taken from checkpoint file:
 /home/ubuntu/g09/Gau-31008.chk
 Charge =  0 Multiplicity = 2

                         Standard orientation:
 ---------------------------------------------------------------------
 Center     Atomic      Atomic             Coordinates (Angstroms)
 Number     Number       Type             X           Y           Z
 ---------------------------------------------------------------------
      1          7           0       -1.683205   -0.536895   -0.000278
      2          7           0       -2.513743    0.313531    0.000004
      3          6           0       -0.284887   -0.261299    0.000312
      4          6           0        1.798395   -0.436833   -0.000075
      5          1           0        2.794115   -0.866200   -0.000340
      6          7           0        0.262309    0.978927    0.000054
      7          1           0       -0.200321    1.879061    0.000400
      8          7           0        1.607358    0.881726   -0.000146
      9          7           0        0.659447   -1.183583    0.000154
 ---------------------------------------------------------------------

 SCF Done:  E(UB3LYP) =  -351.135465309     A.U. after    1 cycles

 The electronic state is 2-A.
 Alpha  occ. eigenvalues --  -14.45630 -14.45450 -14.43286 -14.39953 -14.36715
 Alpha  occ. eigenvalues --  -10.32811 -10.26909  -1.13172  -1.09938  -0.94371
 Alpha  occ. eigenvalues --   -0.87594  -0.75493  -0.66389  -0.65890  -0.55037
 Alpha  occ. eigenvalues --   -0.51787  -0.50894  -0.47757  -0.45358  -0.44278
 Alpha  occ. eigenvalues --   -0.37365  -0.34068  -0.31996  -0.30461  -0.24499
 Alpha virt. eigenvalues --   -0.10808  -0.01810  -0.01048   0.00647   0.02608
 Alpha virt. eigenvalues --    0.02617   0.04091   0.04244   0.05186   0.06544
 Alpha virt. eigenvalues --    0.07660   0.07904   0.09830   0.10162   0.10483

  Beta  occ. eigenvalues --  -14.45616 -14.45051 -14.41701 -14.39975 -14.36753
  Beta  occ. eigenvalues --  -10.32438 -10.26893  -1.12752  -1.08471  -0.94336
  Beta  occ. eigenvalues --   -0.87148  -0.73791  -0.66229  -0.65492  -0.54471
  Beta  occ. eigenvalues --   -0.51584  -0.47472  -0.46643  -0.44701  -0.41157
  Beta  occ. eigenvalues --   -0.36797  -0.34151  -0.31972  -0.30177
  Beta virt. eigenvalues --   -0.10041  -0.09695  -0.01660  -0.00976   0.00656
  Beta virt. eigenvalues --    0.02690   0.02891   0.04303   0.04305   0.05260
  Beta virt. eigenvalues --    0.06639   0.07738   0.07951   0.09845   0.10189

 Mulliken atomic charges:
              1
     1  N    0.164516
     2  N   -0.542290
     3  C    0.405531
     4  C    0.711898
     5  H   -0.309666
     6  N    0.224656
     7  H   -0.102120
     8  N   -0.317246
     9  N   -0.235279
 Sum of Mulliken atomic charges =   0.00000

 Dipole moment (field-independent basis, Debye):
    X=              0.7471    Y=              1.6964    Z=              0.0008  Tot=              1.8537
 Quadrupole moment (field-independent basis, Debye-Ang):
   XX=            -43.3715   YY=            -40.8285   ZZ=            -39.2417
   XY=             -3.6058   XZ=             -0.0013   YZ=              0.0013

  Exact polarizability:  85.023  -3.941  57.688  -0.003   0.001  35.331
 Approx polarizability: 134.854 -10.569 102.063  -0.010  -0.001  53.406

                     1                      2                      3
                     A                      A                      A
 Frequencies --   123.3677               238.1038               293.7458
 Red. masses --     8.0492                 8.4786                 9.9221
 Frc consts  --     0.0722                 0.2832                 0.5044
 IR Inten    --     2.1701                 6.1921                 0.6149

                     4                      5                      6
                     A                      A                      A
 Frequencies --   519.9039               598.6734               667.1797
 Red. masses --    10.0446                 1.5754                11.2075
 Frc consts  --     1.5997                 0.3327                 2.9393
 IR Inten    --     2.5274                55.8788                18.1034

                     7                      8                      9
                     A                      A                      A
 Frequencies --   697.5083               707.4056               902.3584
 Red. masses --     2.8238                 4.3423                 1.3905
 Frc consts  --     0.8094                 1.2803                 0.6671
 IR Inten    --    50.2926                 0.2640                13.7829

                    10                     11                     12
                     A                      A                      A
 Frequencies --   971.9096              1037.8524              1123.7940
 Red. masses --     8.1108                 4.5810                 2.8183
 Frc consts  --     4.5140                 2.9072                 2.0971
 IR Inten    --    14.9034                22.0088                27.3695

                    13                     14                     15
                     A                      A                      A
 Frequencies --  1209.6325              1263.1215              1313.1054
 Red. masses --     2.0465                 2.7922                 5.4911
 Frc consts  --     1.7643                 2.6248                 5.5784
 IR Inten    --     4.1451                19.9854                14.8715

                    16                     17                     18
                     A                      A                      A
 Frequencies --  1386.8738              1454.9888              1549.3713
 Red. masses --     4.6034                 3.1688                 4.0871
 Frc consts  --     5.2168                 3.9524                 5.7806
 IR Inten    --     3.4221                31.9458                33.3059

                    19                     20                     21
                     A                      A                      A
 Frequencies --  1832.7514              3271.5019              3630.5131
 Red. masses --    13.9608                 1.0990                 1.0831
 Frc consts  --    27.6291                 6.9299                 8.4115
 IR Inten    --    22.8142                 0.8582               106.4205

 - Thermochemistry -
 -------------------
 Temperature   298.150 Kelvin.  Pressure   1.00000 Atm.
 Atom     1 has atomic number  7 and mass  14.00307

 Molecular mass:    96.03102 amu.
 Principal axes and moments of inertia in atomic units:
                           1         2         3
     Eigenvalues --   202.48615 782.27509 984.76121
           X            0.99986  -0.01695   0.00000
           Y            0.01695   0.99986   0.00002
           Z            0.00000  -0.00002   1.00000
 This molecule is an asymmetric top.
 Rotational symmetry number  1.
 Rotational temperatures (Kelvin)      0.42775     0.11072     0.08795
 Rotational constants (GHZ):           8.91291     2.30704     1.83267
 Zero-point vibrational energy     148299.0 (Joules/Mol)
                                   35.44432 (Kcal/Mol)
 Warning -- explicit consideration of   5 degrees of freedom as
           vibrations may cause significant error
 Vibrational temperatures:    177.50   342.58   422.63   748.02   861.36
          (Kelvin)            959.92  1003.56  1017.80  1298.29  1398.36
                             1493.24  1616.89  1740.39  1817.35  1889.26
                             1995.40  2093.40  2229.20  2636.92  4706.96
                             5223.49

 Zero-point correction=                           0.056484 (Hartree/Particle)
 Thermal correction to Energy=                    0.061867
 Thermal correction to Enthalpy=                  0.062811
 Thermal correction to Gibbs Free Energy=         0.026522
 Sum of electronic and zero-point Energies=           -351.078981
 Sum of electronic and thermal Energies=              -351.073598
 Sum of electronic and thermal Enthalpies=            -351.072654
 Sum of electronic and thermal Free Energies=         -351.108943

                     E (Thermal)             CV                S
                      KCal/Mol        Cal/Mol-Kelvin    Cal/Mol-Kelvin
 Total                   38.822             18.437             76.377
 Electronic               0.000              0.000              1.377
 Translational            0.889              2.981             39.597
 Rotational               0.889              2.981             26.548
 Vibrational             37.045             12.475              8.855
 Vibration     1          0.610              1.930              3.047
 Vibration     2          0.656              1.782              1.817
 Vibration     3          0.689              1.685              1.452
 Vibration     4          0.875              1.206              0.610
 Vibration     5          0.957              1.035              0.452

 Optimization completed.
    -- Stationary point found.
 Normal termination of Gaussian 09 at Sat Mar 12 01:49:09 2005.
