 Gaussian 09, Revision B.01,
 Gaussian 09:  EM64L-G09RevB.01 12-Aug-2010

 ----------------------------------------------------------------------
 #p Temperature=298.15 opt=(maxcycles=1024) SCF=(maxcycles=1024) freq U
 B3LYP/aug-cc-pVDZ
 ----------------------------------------------------------------------

 --------------------------------------------------
 1H-1,2,3-Triazole-5-N2+-UB3LYP-aug-cc-pVDZ-Triplet
 --------------------------------------------------
 Symbolic Z-matrix:
 Charge =  1 Multiplicity = 3

 SCF Done:  E(UB3LYP) =  -350.517961891     A.U. after   22 cycles
 SCF Done:  E(UB3LYP) =  -350.644591760     A.U. after   21 cycles
 SCF Done:  E(UB3LYP) =  -350.714297321     A.U. after   21 cycles
 SCF Done:  E(UB3LYP) =  -350.724764837     A.U. after   20 cycles
 SCF Done:  E(UB3LYP) =  -350.727907647     A.U. after   18 cycles
 SCF Done:  E(UB3LYP) =  -350.729292169     A.U. after   19 cycles
 SCF Done:  E(UB3LYP) =  -350.730637325     A.U. after   19 cycles
 SCF Done:  E(UB3LYP) =  -350.731553797     A.U. after   19 cycles
 SCF Done:  E(UB3LYP) =  -350.733201670     A.U. after   21 cycles
 SCF Done:  E(UB3LYP) =  -350.734081584     A.U. after   21 cycles
 SCF Done:  E(UB3LYP) =  -350.734996186     A.U. after   17 cycles
 SCF Done:  E(UB3LYP) =  -350.735027163     A.U. after   17 cycles
 SCF Done:  E(UB3LYP) =  -350.735049243     A.U. after   17 cycles
 SCF Done:  E(UB3LYP) =  -350.735071402     A.U. after   17 cycles
 SCF Done:  E(UB3LYP) =  -350.735080918     A.U. after   17 cycles
 SCF Done:  E(UB3LYP) =  -350.735081981     A.U. after   16 cycles
 SCF Done:  E(UB3LYP) =  -350.735082514     A.U. after   16 cycles
 SCF Done:  E(UB3LYP) =  -350.735082573     A.U. after   16 cycles
 SCF Done:  E(UB3LYP) =  -350.735082567     A.U. after   14 cycles
 Optimization completed.
    -- Stationary point found.
 Normal termination of Gaussian 09 at Thu Apr 12 14:21:23 2018.

 ----------------------------------------------------------------------
 #P Geom=AllCheck Guess=TCheck SCRF=Check GenChk UB3LYP/Aug-CC-pVDZ Fre
 q
 ----------------------------------------------------------------------

 1H-1,2,3-Triazole-5-N2+-UB3LYP-aug-cc-pVDZ-Triplet
 --------------------------------------------------
 Redundant internal coordinates taken from checkpoint file:
 /home/ubuntu/g09/Gau-2498.chk
 Charge =  1 Multiplicity = 3

                         Standard orientation:
 ---------------------------------------------------------------------
 Center     Atomic      Atomic             Coordinates (Angstroms)
 Number     Number       Type             X           Y           Z
 ---------------------------------------------------------------------
      1          7           0       -1.706280   -0.187365    0.364330
      2          7           0       -2.598667    0.184869   -0.336406
      3          6           0       -0.347051   -0.061265    0.086073
      4          6           0        0.510140    1.136705    0.057851
      5          1           0        0.207633    2.180892    0.119719
      6          7           0        0.499709   -1.068369   -0.031972
      7          1           0        0.330019   -2.075212   -0.025027
      8          7           0        1.815638   -0.587388   -0.073015
      9          7           0        1.773002    0.721350   -0.059828
 ---------------------------------------------------------------------

 SCF Done:  E(UB3LYP) =  -350.735082567     A.U. after    1 cycles

 The electronic state is 3-A.
 Alpha  occ. eigenvalues --  -14.69664 -14.69122 -14.67948 -14.66490 -14.62831
 Alpha  occ. eigenvalues --  -10.58889 -10.52691  -1.37898  -1.33159  -1.19600
 Alpha  occ. eigenvalues --   -1.10368  -0.99390  -0.91383  -0.89495  -0.79493
 Alpha  occ. eigenvalues --   -0.76071  -0.73851  -0.72117  -0.67616  -0.66225
 Alpha  occ. eigenvalues --   -0.60940  -0.58774  -0.55726  -0.54040  -0.46206
 Alpha virt. eigenvalues --   -0.32153  -0.27793  -0.24477  -0.17697  -0.14700
 Alpha virt. eigenvalues --   -0.13929  -0.12365  -0.11330  -0.09825  -0.08883
 Alpha virt. eigenvalues --   -0.07174  -0.06646  -0.05315  -0.05121  -0.04433

  Beta  occ. eigenvalues --  -14.69242 -14.68615 -14.67590 -14.64665 -14.63145
  Beta  occ. eigenvalues --  -10.58137 -10.52010  -1.36826  -1.31040  -1.19333
  Beta  occ. eigenvalues --   -1.07985  -0.97139  -0.90846  -0.88578  -0.78379
  Beta  occ. eigenvalues --   -0.73153  -0.72975  -0.67665  -0.65620  -0.63189
  Beta  occ. eigenvalues --   -0.59895  -0.58067  -0.53594
  Beta virt. eigenvalues --   -0.44058  -0.30661  -0.29526  -0.24917  -0.21334
  Beta virt. eigenvalues --   -0.17488  -0.14324  -0.13497  -0.12011  -0.10987
  Beta virt. eigenvalues --   -0.09455  -0.08544  -0.06673  -0.06357  -0.05078

 Mulliken atomic charges:
              1
     1  N    0.078747
     2  N   -0.270190
     3  C    0.757662
     4  C    0.795973
     5  H   -0.268325
     6  N    0.146911
     7  H   -0.027108
     8  N   -0.042568
     9  N   -0.171102
 Sum of Mulliken atomic charges =   1.00000

 Dipole moment (field-independent basis, Debye):
    X=             -0.9789    Y=             -0.8209    Z=              0.2534  Tot=              1.3024
 Quadrupole moment (field-independent basis, Debye-Ang):
   XX=            -37.1380   YY=            -23.9985   ZZ=            -36.5373
   XY=             -0.8774   XZ=             -0.1673   YZ=              0.8753

  Exact polarizability:  81.057  -2.007  50.810   0.020  -0.211  32.680
 Approx polarizability: 136.607  -9.418  87.880   1.893  -1.416  52.586

                     1                      2                      3
                     A                      A                      A
 Frequencies --    33.2814               149.7260               316.6568
 Red. masses --    10.0778                11.0830                 9.4696
 Frc consts  --     0.0066                 0.1464                 0.5594
 IR Inten    --     3.8920                12.4064                 4.9992

                     4                      5                      6
                     A                      A                      A
 Frequencies --   321.6149               442.4520               533.6609
 Red. masses --     9.6293                 6.6511                 8.2782
 Frc consts  --     0.5868                 0.7671                 1.3890
 IR Inten    --    11.8839                12.3042                48.4213

                     7                      8                      9
                     A                      A                      A
 Frequencies --   645.4516               673.2459               706.9028
 Red. masses --     2.6419                 2.6815                 1.5533
 Frc consts  --     0.6485                 0.7161                 0.4573
 IR Inten    --    11.8939                72.9557                67.4375

                    10                     11                     12
                     A                      A                      A
 Frequencies --   844.8135               938.9199               977.0835
 Red. masses --     2.0185                 9.5399                 4.8019
 Frc consts  --     0.8488                 4.9551                 2.7010
 IR Inten    --    12.5989                12.3423                13.8659

                    13                     14                     15
                     A                      A                      A
 Frequencies --  1054.8320              1157.8676              1264.3495
 Red. masses --     2.6759                 2.2678                 5.9778
 Frc consts  --     1.7543                 1.7913                 5.6302
 IR Inten    --    27.9525                13.4689                41.6095

                    16                     17                     18
                     A                      A                      A
 Frequencies --  1344.5843              1354.4651              1512.9857
 Red. masses --     1.7389                 3.7181                 4.0577
 Frc consts  --     1.8522                 4.0189                 5.4727
 IR Inten    --    32.9437                 4.4591               117.5423

                    19                     20                     21
                     A                      A                      A
 Frequencies --  1767.7478              3248.5545              3532.1975
 Red. masses --    13.7385                 1.1013                 1.0860
 Frc consts  --    25.2948                 6.8473                 7.9831
 IR Inten    --    54.5010                40.6521               259.8945

 - Thermochemistry -
 -------------------
 Temperature   298.150 Kelvin.  Pressure   1.00000 Atm.
 Atom     1 has atomic number  7 and mass  14.00307

 Molecular mass:    96.03102 amu.
 Principal axes and moments of inertia in atomic units:
                           1         2         3
     Eigenvalues --   205.26977 847.960581026.62853
           X            1.00000  -0.00127   0.00007
           Y            0.00127   0.99998   0.00622
           Z           -0.00008  -0.00622   0.99998
 This molecule is an asymmetric top.
 Rotational symmetry number  1.
 Rotational temperatures (Kelvin)      0.42195     0.10214     0.08437
 Rotational constants (GHZ):           8.79205     2.12833     1.75793
 Zero-point vibrational energy     136502.2 (Joules/Mol)
                                   32.62482 (Kcal/Mol)
 Warning -- explicit consideration of   6 degrees of freedom as
           vibrations may cause significant error
 Vibrational temperatures:     47.88   215.42   455.60   462.73   636.59
          (Kelvin)            767.82   928.66   968.65  1017.07  1215.50
                             1350.89  1405.80  1517.67  1665.91  1819.11
                             1934.55  1948.77  2176.85  2543.39  4673.94
                             5082.04

 Zero-point correction=                           0.051991 (Hartree/Particle)
 Thermal correction to Energy=                    0.058213
 Thermal correction to Enthalpy=                  0.059157
 Thermal correction to Gibbs Free Energy=         0.019998
 Sum of electronic and zero-point Energies=           -350.683092
 Sum of electronic and thermal Energies=              -350.676870
 Sum of electronic and thermal Enthalpies=            -350.675926
 Sum of electronic and thermal Free Energies=         -350.715084

                     E (Thermal)             CV                S
                      KCal/Mol        Cal/Mol-Kelvin    Cal/Mol-Kelvin
 Total                   36.529             20.814             82.416
 Electronic               0.000              0.000              2.183
 Translational            0.889              2.981             39.597
 Rotational               0.889              2.981             26.683
 Vibrational             34.752             14.852             13.953
 Vibration     1          0.594              1.983              5.624
 Vibration     2          0.618              1.903              2.676
 Vibration     3          0.704              1.642              1.327
 Vibration     4          0.707              1.632              1.302
 Vibration     5          0.802              1.378              0.819
 Vibration     6          0.889              1.176              0.579

 Optimization completed.
    -- Stationary point found.
 Normal termination of Gaussian 09 at Thu Apr 12 14:23:49 2018.
