 Gaussian 09, Revision B.01,
 Gaussian 09:  EM64L-G09RevB.01 12-Aug-2010

 ----------------------------------------------------------------------
 #p Temperature=298.15 opt=(maxcycles=1024) SCF=(maxcycles=1024) freq U
 B3LYP/aug-cc-pVDZ
 ----------------------------------------------------------------------

 -------------------------------------------------
 1H-1,2,3-Triazole-4-N2-UB3LYP-aug-cc-pVDZ-Doublet
 -------------------------------------------------
 Symbolic Z-matrix:
 Charge =  0 Multiplicity = 2

 SCF Done:  E(UB3LYP) =  -351.057782389     A.U. after   23 cycles
 SCF Done:  E(UB3LYP) =  -351.081055344     A.U. after   21 cycles
 SCF Done:  E(UB3LYP) =  -351.083458132     A.U. after   21 cycles
 SCF Done:  E(UB3LYP) =  -351.083643595     A.U. after   17 cycles
 SCF Done:  E(UB3LYP) =  -351.083641341     A.U. after   21 cycles
 SCF Done:  E(UB3LYP) =  -351.083666836     A.U. after   21 cycles
 SCF Done:  E(UB3LYP) =  -351.083683423     A.U. after   17 cycles
 SCF Done:  E(UB3LYP) =  -351.083781199     A.U. after   18 cycles
 SCF Done:  E(UB3LYP) =  -351.088695321     A.U. after   20 cycles
 SCF Done:  E(UB3LYP) =  -351.085046937     A.U. after   19 cycles
 SCF Done:  E(UB3LYP) =  -351.107964454     A.U. after   19 cycles
 SCF Done:  E(UB3LYP) =  -351.106130754     A.U. after   16 cycles
 SCF Done:  E(UB3LYP) =  -351.109086363     A.U. after   15 cycles
 SCF Done:  E(UB3LYP) =  -351.109995968     A.U. after   19 cycles
 SCF Done:  E(UB3LYP) =  -351.110469907     A.U. after   19 cycles
 SCF Done:  E(UB3LYP) =  -351.110765251     A.U. after   19 cycles
 SCF Done:  E(UB3LYP) =  -351.110851795     A.U. after   14 cycles
 SCF Done:  E(UB3LYP) =  -351.110855335     A.U. after   13 cycles
 SCF Done:  E(UB3LYP) =  -351.110856994     A.U. after   13 cycles
 Optimization completed.
    -- Stationary point found.
 Normal termination of Gaussian 09 at Sat Mar 12 00:39:02 2005.

 ----------------------------------------------------------------------
 #P Geom=AllCheck Guess=TCheck SCRF=Check GenChk UB3LYP/Aug-CC-pVDZ Fre
 q
 ----------------------------------------------------------------------

 1H-1,2,3-Triazole-4-N2-UB3LYP-aug-cc-pVDZ-Doublet
 -------------------------------------------------
 Redundant internal coordinates taken from checkpoint file:
 /home/ubuntu/g09/Gau-16464.chk
 Charge =  0 Multiplicity = 2

                         Standard orientation:
 ---------------------------------------------------------------------
 Center     Atomic      Atomic             Coordinates (Angstroms)
 Number     Number       Type             X           Y           Z
 ---------------------------------------------------------------------
      1          7           0       -1.726115   -0.473668    0.000643
      2          7           0       -2.586423    0.345485   -0.000583
      3          6           0       -0.334316   -0.164654   -0.000025
      4          7           0        1.620770    0.699870    0.000005
      5          1           0        2.442447    1.291379    0.000108
      6          6           0        0.319090    1.056973    0.000259
      7          1           0       -0.033582    2.080219    0.000144
      8          7           0        1.775733   -0.648044   -0.000288
      9          7           0        0.584961   -1.170146   -0.000013
 ---------------------------------------------------------------------

 SCF Done:  E(UB3LYP) =  -351.110856994     A.U. after    1 cycles

 The electronic state is 2-A.
 Alpha  occ. eigenvalues --  -14.45945 -14.43493 -14.42623 -14.41163 -14.39084
 Alpha  occ. eigenvalues --  -10.28360 -10.27789  -1.13808  -1.08718  -0.94623
 Alpha  occ. eigenvalues --   -0.85741  -0.73919  -0.68232  -0.62704  -0.57686
 Alpha  occ. eigenvalues --   -0.51307  -0.50972  -0.47997  -0.44780  -0.42803
 Alpha  occ. eigenvalues --   -0.37498  -0.34317  -0.30958  -0.29864  -0.22433
 Alpha virt. eigenvalues --   -0.08518  -0.04345  -0.03141   0.00181   0.02556
 Alpha virt. eigenvalues --    0.03429   0.04820   0.04824   0.05495   0.06364
 Alpha virt. eigenvalues --    0.07625   0.07864   0.09368   0.10038   0.10253

  Beta  occ. eigenvalues --  -14.45947 -14.43099 -14.42615 -14.39578 -14.39114
  Beta  occ. eigenvalues --  -10.28002 -10.27791  -1.13760  -1.06927  -0.94592
  Beta  occ. eigenvalues --   -0.85178  -0.72573  -0.67978  -0.62335  -0.56929
  Beta  occ. eigenvalues --   -0.50911  -0.50809  -0.44384  -0.44061  -0.39023
  Beta  occ. eigenvalues --   -0.37272  -0.34327  -0.30870  -0.29475
  Beta virt. eigenvalues --   -0.07975  -0.07498  -0.04310  -0.03093   0.00246
  Beta virt. eigenvalues --    0.02598   0.03639   0.04924   0.05003   0.05583
  Beta virt. eigenvalues --    0.06392   0.07671   0.07963   0.09464   0.10254

 Mulliken atomic charges:
              1
     1  N    0.155561
     2  N   -0.570641
     3  C    0.349476
     4  N    0.099496
     5  H   -0.107091
     6  C    1.091720
     7  H   -0.463365
     8  N   -0.260446
     9  N   -0.294710
 Sum of Mulliken atomic charges =   0.00000

 Dipole moment (field-independent basis, Debye):
    X=              2.6889    Y=              4.5056    Z=              0.0007  Tot=              5.2470
 Quadrupole moment (field-independent basis, Debye-Ang):
   XX=            -43.2945   YY=            -38.8485   ZZ=            -39.4836
   XY=              7.1877   XZ=              0.0003   YZ=              0.0025

  Exact polarizability:  83.162  -2.073  60.064   0.004  -0.002  35.642
 Approx polarizability: 132.971  -7.896 105.694   0.013  -0.004  53.991

                     1                      2                      3
                     A                      A                      A
 Frequencies --   118.3944               238.9535               295.6609
 Red. masses --    10.5754                 7.6814                 8.2521
 Frc consts  --     0.0873                 0.2584                 0.4250
 IR Inten    --     3.3652                10.2357                 0.3065

                     4                      5                      6
                     A                      A                      A
 Frequencies --   503.8905               614.5469               663.4574
 Red. masses --    11.8026                 2.2959                 9.4269
 Frc consts  --     1.7656                 0.5109                 2.4448
 IR Inten    --     0.6029                47.0005                16.9016

                     7                      8                      9
                     A                      A                      A
 Frequencies --   676.7627               726.7546               823.8204
 Red. masses --     1.8066                 3.8318                 1.4840
 Frc consts  --     0.4875                 1.1924                 0.5934
 IR Inten    --    26.3607                18.1381                19.7268

                    10                     11                     12
                     A                      A                      A
 Frequencies --   971.6401              1018.3752              1027.8562
 Red. masses --     3.1343                 4.5542                 8.4067
 Frc consts  --     1.7434                 2.7828                 5.2329
 IR Inten    --     3.6521                16.5267                 1.5421

                    13                     14                     15
                     A                      A                      A
 Frequencies --  1107.0483              1255.3994              1322.1185
 Red. masses --     1.5742                 4.1263                 7.5417
 Frc consts  --     1.1367                 3.8315                 7.7671
 IR Inten    --    15.3801                20.9150                24.5285

                    16                     17                     18
                     A                      A                      A
 Frequencies --  1347.2797              1471.6558              1536.3041
 Red. masses --     3.9244                 3.7347                 3.2997
 Frc consts  --     4.1970                 4.7657                 4.5886
 IR Inten    --     4.3005                 2.3059                 1.6082

                    19                     20                     21
                     A                      A                      A
 Frequencies --  1839.8912              3296.2383              3624.4749
 Red. masses --    13.9574                 1.1015                 1.0835
 Frc consts  --    27.8381                 7.0511                 8.3860
 IR Inten    --    23.9991                 7.7730               101.7170

 - Thermochemistry -
 -------------------
 Temperature   298.150 Kelvin.  Pressure   1.00000 Atm.
 Atom     1 has atomic number  7 and mass  14.00307

 Molecular mass:    96.03102 amu.
 Principal axes and moments of inertia in atomic units:
                           1         2         3
     Eigenvalues --   201.14410 820.279061021.42307
           X            0.99984   0.01815   0.00000
           Y           -0.01815   0.99984   0.00001
           Z            0.00000  -0.00001   1.00000
 This molecule is an asymmetric top.
 Rotational symmetry number  1.
 Rotational temperatures (Kelvin)      0.43061     0.10559     0.08480
 Rotational constants (GHZ):           8.97238     2.20016     1.76689
 Zero-point vibrational energy     146426.0 (Joules/Mol)
                                   34.99666 (Kcal/Mol)
 Warning -- explicit consideration of   5 degrees of freedom as
           vibrations may cause significant error
 Vibrational temperatures:    170.34   343.80   425.39   724.99   884.19
          (Kelvin)            954.57   973.71  1045.64  1185.29  1397.97
                             1465.21  1478.85  1592.79  1806.24  1902.23
                             1938.43  2117.38  2210.40  2647.19  4742.55
                             5214.80

 Zero-point correction=                           0.055771 (Hartree/Particle)
 Thermal correction to Energy=                    0.061206
 Thermal correction to Enthalpy=                  0.062150
 Thermal correction to Gibbs Free Energy=         0.025733
 Sum of electronic and zero-point Energies=           -351.055086
 Sum of electronic and thermal Energies=              -351.049651
 Sum of electronic and thermal Enthalpies=            -351.048707
 Sum of electronic and thermal Free Energies=         -351.085124

                     E (Thermal)             CV                S
                      KCal/Mol        Cal/Mol-Kelvin    Cal/Mol-Kelvin
 Total                   38.407             18.762             76.645
 Electronic               0.000              0.000              1.377
 Translational            0.889              2.981             39.597
 Rotational               0.889              2.981             26.624
 Vibrational             36.630             12.800              9.046
 Vibration     1          0.609              1.934              3.126
 Vibration     2          0.657              1.781              1.811
 Vibration     3          0.690              1.682              1.441
 Vibration     4          0.859              1.241              0.648
 Vibration     5          0.974              1.001              0.425

 Optimization completed.
    -- Stationary point found.
 Normal termination of Gaussian 09 at Sat Mar 12 00:41:26 2005.
