 Gaussian 09, Revision B.01,
 Gaussian 09:  EM64L-G09RevB.01 12-Aug-2010

 ----------------------------------------------------------------------
 #p Temperature=298.15 opt=(maxcycles=1024) SCF=(maxcycles=1024) freq U
 B3LYP/aug-cc-pVDZ
 ----------------------------------------------------------------------

 ----------------------------------------------
 1H-1,2,4-Triazole-5-UB3LYP-aug-cc-pVDZ-Doublet
 ----------------------------------------------
 Symbolic Z-matrix:
 Charge =  0 Multiplicity = 2

 SCF Done:  E(UB3LYP) =  -241.555789932     A.U. after   18 cycles
 SCF Done:  E(UB3LYP) =  -241.586758573     A.U. after   17 cycles
 SCF Done:  E(UB3LYP) =  -241.590437492     A.U. after   17 cycles
 SCF Done:  E(UB3LYP) =  -241.590810058     A.U. after   18 cycles
 SCF Done:  E(UB3LYP) =  -241.590576805     A.U. after   17 cycles
 SCF Done:  E(UB3LYP) =  -241.590842695     A.U. after   12 cycles
 SCF Done:  E(UB3LYP) =  -241.590849513     A.U. after   18 cycles
 SCF Done:  E(UB3LYP) =  -241.590854863     A.U. after   18 cycles
 SCF Done:  E(UB3LYP) =  -241.590856526     A.U. after   11 cycles
 Optimization completed.
    -- Stationary point found.
 Normal termination of Gaussian 09 at Sat Mar 12 01:51:15 2005.

 ----------------------------------------------------------------------
 #P Geom=AllCheck Guess=TCheck SCRF=Check GenChk UB3LYP/Aug-CC-pVDZ Fre
 q
 ----------------------------------------------------------------------

 1H-1,2,4-Triazole-5-UB3LYP-aug-cc-pVDZ-Doublet
 ----------------------------------------------
 Redundant internal coordinates taken from checkpoint file:
 /home/ubuntu/g09/Gau-1523.chk
 Charge =  0 Multiplicity = 2

                         Standard orientation:
 ---------------------------------------------------------------------
 Center     Atomic      Atomic             Coordinates (Angstroms)
 Number     Number       Type             X           Y           Z
 ---------------------------------------------------------------------
      1          6           0       -0.237857   -1.124283    0.000774
      2          6           0        0.868499    0.632928    0.000180
      3          1           0        1.717387    1.307863    0.000502
      4          7           0       -1.098589   -0.091140   -0.000333
      5          1           0       -2.107830   -0.082184   -0.000468
      6          7           0       -0.380556    1.077466    0.000086
      7          7           0        0.994372   -0.740262   -0.000576
 ---------------------------------------------------------------------

 SCF Done:  E(UB3LYP) =  -241.590856526     A.U. after    1 cycles

 The electronic state is 2-A.
 Alpha  occ. eigenvalues --  -14.44133 -14.38339 -14.35701 -10.29676 -10.26339
 Alpha  occ. eigenvalues --   -1.10408  -0.92810  -0.85451  -0.66037  -0.64367
 Alpha  occ. eigenvalues --   -0.56812  -0.48567  -0.47028  -0.38639  -0.32621
 Alpha  occ. eigenvalues --   -0.31910  -0.30452  -0.29738
 Alpha virt. eigenvalues --   -0.02131  -0.01699   0.01078   0.01490   0.03838
 Alpha virt. eigenvalues --    0.04665   0.04996   0.05876   0.07174   0.08608
 Alpha virt. eigenvalues --    0.08972   0.11070   0.11482   0.12246   0.14130

  Beta  occ. eigenvalues --  -14.43982 -14.38293 -14.35464 -10.28110 -10.26152
  Beta  occ. eigenvalues --   -1.09802  -0.92317  -0.84591  -0.65349  -0.63432
  Beta  occ. eigenvalues --   -0.54961  -0.48183  -0.46417  -0.36772  -0.32534
  Beta  occ. eigenvalues --   -0.30636  -0.29042
  Beta virt. eigenvalues --   -0.15369  -0.01570  -0.01193   0.01100   0.02392
  Beta virt. eigenvalues --    0.04487   0.04696   0.05464   0.06072   0.07321
  Beta virt. eigenvalues --    0.08716   0.09057   0.11117   0.11477   0.12297

 Mulliken atomic charges:
              1
     1  C    0.023469
     2  C    0.638396
     3  H   -0.261935
     4  N    0.151755
     5  H   -0.094931
     6  N   -0.256516
     7  N   -0.200238
 Sum of Mulliken atomic charges =   0.00000

 Dipole moment (field-independent basis, Debye):
    X=             -2.0350    Y=             -0.0854    Z=              0.0001  Tot=              2.0367
 Quadrupole moment (field-independent basis, Debye-Ang):
   XX=            -23.5603   YY=            -31.7751   ZZ=            -29.4851
   XY=              4.9821   XZ=              0.0039   YZ=              0.0007

  Exact polarizability:  50.422   1.366  47.230  -0.003  -0.013  29.018
 Approx polarizability:  85.749   0.414  76.500  -0.010  -0.024  41.696

                     1                      2                      3
                     A                      A                      A
 Frequencies --   488.5513               634.2653               679.8784
 Red. masses --     2.3226                 2.2942                 3.0985
 Frc consts  --     0.3266                 0.5438                 0.8438
 IR Inten    --    43.6454                16.6275                45.2937

                     4                      5                      6
                     A                      A                      A
 Frequencies --   871.0641               883.9586               964.2184
 Red. masses --    10.2700                 1.3434                 7.1584
 Frc consts  --     4.5912                 0.6185                 3.9212
 IR Inten    --    32.9184                17.9001                17.3124

                     7                      8                      9
                     A                      A                      A
 Frequencies --  1047.6427              1153.7390              1214.0559
 Red. masses --     3.7469                 3.1964                 2.2907
 Frc consts  --     2.4230                 2.5068                 1.9893
 IR Inten    --    21.1829                39.9463                 2.5141

                    10                     11                     12
                     A                      A                      A
 Frequencies --  1271.3806              1400.9729              1422.1505
 Red. masses --     2.0848                 3.4581                 3.2481
 Frc consts  --     1.9855                 3.9989                 3.8706
 IR Inten    --    11.3483                18.1098                26.7233

                    13                     14                     15
                     A                      A                      A
 Frequencies --  1558.1704              3268.3851              3667.6524
 Red. masses --     5.0766                 1.0980                 1.0830
 Frc consts  --     7.2620                 6.9107                 8.5835
 IR Inten    --    67.7232                 1.0604               100.9353

 - Thermochemistry -
 -------------------
 Temperature   298.150 Kelvin.  Pressure   1.00000 Atm.
 Atom     1 has atomic number  6 and mass  12.00000

 Molecular mass:    68.02487 amu.
 Principal axes and moments of inertia in atomic units:
                           1         2         3
     Eigenvalues --   159.44063 182.25094 341.69146
           X            0.91130   0.41174   0.00004
           Y           -0.41174   0.91130   0.00002
           Z           -0.00003  -0.00003   1.00000
 This molecule is an asymmetric top.
 Rotational symmetry number  1.
 Rotational temperatures (Kelvin)      0.54324     0.47524     0.25349
 Rotational constants (GHZ):          11.31921     9.90251     5.28179
 Zero-point vibrational energy     122773.3 (Joules/Mol)
                                   29.34351 (Kcal/Mol)
 Warning -- explicit consideration of   1 degrees of freedom as
           vibrations may cause significant error
 Vibrational temperatures:    702.92   912.57   978.19  1253.27  1271.82
          (Kelvin)           1387.29  1507.32  1659.97  1746.75  1829.23
                             2015.69  2046.15  2241.86  4702.47  5276.93

 Zero-point correction=                           0.046762 (Hartree/Particle)
 Thermal correction to Energy=                    0.050347
 Thermal correction to Enthalpy=                  0.051291
 Thermal correction to Gibbs Free Energy=         0.020016
 Sum of electronic and zero-point Energies=           -241.544095
 Sum of electronic and thermal Energies=              -241.540509
 Sum of electronic and thermal Enthalpies=            -241.539565
 Sum of electronic and thermal Free Energies=         -241.570840

                     E (Thermal)             CV                S
                      KCal/Mol        Cal/Mol-Kelvin    Cal/Mol-Kelvin
 Total                   31.593             11.735             65.824
 Electronic               0.000              0.000              1.377
 Translational            0.889              2.981             38.570
 Rotational               0.889              2.981             23.811
 Vibrational             29.816              5.773              2.066
 Vibration     1          0.844              1.275              0.687

 Optimization completed.
    -- Stationary point found.
 Normal termination of Gaussian 09 at Sat Mar 12 01:52:10 2005.
