 Gaussian 09, Revision B.01,
 Gaussian 09:  EM64L-G09RevB.01 12-Aug-2010

 ----------------------------------------------------------------------
 #p Temperature=298.15 opt=(maxcycles=1024) SCF=(maxcycles=1024) freq U
 B3LYP/aug-cc-pVDZ
 ----------------------------------------------------------------------

 -------------------------------------------------
 1H-1,2,4-Triazole-3-N2-UB3LYP-aug-cc-pVDZ-Doublet
 -------------------------------------------------
 Symbolic Z-matrix:
 Charge =  0 Multiplicity = 2

 SCF Done:  E(UB3LYP) =  -351.076666534     A.U. after   22 cycles
 SCF Done:  E(UB3LYP) =  -351.109640931     A.U. after   20 cycles
 SCF Done:  E(UB3LYP) =  -351.113358911     A.U. after   23 cycles
 SCF Done:  E(UB3LYP) =  -351.113557609     A.U. after   22 cycles
 SCF Done:  E(UB3LYP) =  -351.113527917     A.U. after   17 cycles
 SCF Done:  E(UB3LYP) =  -351.113585780     A.U. after   17 cycles
 SCF Done:  E(UB3LYP) =  -351.113596078     A.U. after   16 cycles
 SCF Done:  E(UB3LYP) =  -351.113522217     A.U. after   21 cycles
 SCF Done:  E(UB3LYP) =  -351.113756035     A.U. after   19 cycles
 SCF Done:  E(UB3LYP) =  -351.113848499     A.U. after   17 cycles
 SCF Done:  E(UB3LYP) =  -351.134998450     A.U. after   15 cycles
 SCF Done:  E(UB3LYP) =  -351.135086246     A.U. after   15 cycles
 SCF Done:  E(UB3LYP) =  -351.135126079     A.U. after   15 cycles
 SCF Done:  E(UB3LYP) =  -351.135166717     A.U. after   15 cycles
 SCF Done:  E(UB3LYP) =  -351.135200729     A.U. after   14 cycles
 SCF Done:  E(UB3LYP) =  -351.135224528     A.U. after   14 cycles
 SCF Done:  E(UB3LYP) =  -351.135231718     A.U. after   13 cycles
 SCF Done:  E(UB3LYP) =  -351.135233036     A.U. after   13 cycles
 SCF Done:  E(UB3LYP) =  -351.135233219     A.U. after   21 cycles
 Optimization completed.
    -- Stationary point found.
 Normal termination of Gaussian 09 at Sat Mar 12 01:28:58 2005.

 ----------------------------------------------------------------------
 #P Geom=AllCheck Guess=TCheck SCRF=Check GenChk UB3LYP/Aug-CC-pVDZ Fre
 q
 ----------------------------------------------------------------------

 1H-1,2,4-Triazole-3-N2-UB3LYP-aug-cc-pVDZ-Doublet
 -------------------------------------------------
 Redundant internal coordinates taken from checkpoint file:
 /home/ubuntu/g09/Gau-26525.chk
 Charge =  0 Multiplicity = 2

                         Standard orientation:
 ---------------------------------------------------------------------
 Center     Atomic      Atomic             Coordinates (Angstroms)
 Number     Number       Type             X           Y           Z
 ---------------------------------------------------------------------
      1          7           0        1.708343   -0.481642   -0.000181
      2          7           0        2.562958    0.341706    0.000315
      3          6           0        0.304742   -0.180678   -0.000293
      4          6           0       -1.756628   -0.533368    0.000076
      5          1           0       -2.750914   -0.966838    0.000269
      6          7           0       -1.519579    0.801606    0.000041
      7          1           0       -2.176623    1.571397    0.000374
      8          7           0       -0.194880    1.052257   -0.000170
      9          7           0       -0.608435   -1.188252    0.000090
 ---------------------------------------------------------------------

 SCF Done:  E(UB3LYP) =  -351.135233219     A.U. after    1 cycles

 The electronic state is 2-A.
 Alpha  occ. eigenvalues --  -14.45774 -14.42796 -14.40879 -14.39952 -14.36441
 Alpha  occ. eigenvalues --  -10.30370 -10.29347  -1.12580  -1.08013  -0.94175
 Alpha  occ. eigenvalues --   -0.87412  -0.74728  -0.68063  -0.60786  -0.57770
 Alpha  occ. eigenvalues --   -0.50944  -0.49933  -0.47728  -0.44021  -0.41898
 Alpha  occ. eigenvalues --   -0.37190  -0.33795  -0.32083  -0.30357  -0.21890
 Alpha virt. eigenvalues --   -0.08490  -0.03005  -0.02915   0.00248   0.01954
 Alpha virt. eigenvalues --    0.03430   0.05035   0.05183   0.05522   0.06039
 Alpha virt. eigenvalues --    0.07636   0.07784   0.08879   0.10040   0.10461

  Beta  occ. eigenvalues --  -14.45780 -14.42424 -14.39968 -14.39270 -14.36466
  Beta  occ. eigenvalues --  -10.29989 -10.29336  -1.12440  -1.06277  -0.94118
  Beta  occ. eigenvalues --   -0.87081  -0.73069  -0.67873  -0.60677  -0.56893
  Beta  occ. eigenvalues --   -0.50870  -0.49485  -0.43742  -0.43322  -0.38191
  Beta  occ. eigenvalues --   -0.37122  -0.33793  -0.32054  -0.30069
  Beta virt. eigenvalues --   -0.07460  -0.07242  -0.02938  -0.02825   0.00247
  Beta virt. eigenvalues --    0.02000   0.03454   0.05212   0.05527   0.05614
  Beta virt. eigenvalues --    0.06111   0.07674   0.07871   0.08907   0.10048

 Mulliken atomic charges:
              1
     1  N    0.117616
     2  N   -0.553619
     3  C    0.413605
     4  C    0.761039
     5  H   -0.310429
     6  N    0.158386
     7  H   -0.102330
     8  N   -0.236990
     9  N   -0.247278
 Sum of Mulliken atomic charges =   0.00000

 Dipole moment (field-independent basis, Debye):
    X=             -5.4768    Y=              1.2926    Z=              0.0003  Tot=              5.6273
 Quadrupole moment (field-independent basis, Debye-Ang):
   XX=            -34.2124   YY=            -43.0208   ZZ=            -39.2683
   XY=             -4.0002   XZ=             -0.0029   YZ=              0.0008

  Exact polarizability:  83.121   2.763  57.331   0.000   0.001  35.352
 Approx polarizability: 126.076   6.593 100.222   0.001   0.004  53.355

                     1                      2                      3
                     A                      A                      A
 Frequencies --    58.9341               249.4455               284.3849
 Red. masses --    10.6569                 9.4342                 6.7728
 Frc consts  --     0.0218                 0.3459                 0.3227
 IR Inten    --     0.1918                 2.9499                 4.6821

                     4                      5                      6
                     A                      A                      A
 Frequencies --   513.8963               600.6336               678.9056
 Red. masses --    10.7586                 2.0078                12.3848
 Frc consts  --     1.6740                 0.4268                 3.3632
 IR Inten    --     2.9207                60.9660                21.1539

                     7                      8                      9
                     A                      A                      A
 Frequencies --   684.0648               730.8870               858.1483
 Red. masses --     1.6390                 9.5275                 1.4202
 Frc consts  --     0.4519                 2.9987                 0.6162
 IR Inten    --    14.4461                24.1112                17.4644

                    10                     11                     12
                     A                      A                      A
 Frequencies --   988.0158              1002.5124              1108.4271
 Red. masses --     7.8464                 4.6200                 2.1535
 Frc consts  --     4.5128                 2.7357                 1.5589
 IR Inten    --     6.2007                 4.0732                18.6608

                    13                     14                     15
                     A                      A                      A
 Frequencies --  1174.2647              1289.2260              1347.6622
 Red. masses --     2.5017                 2.3930                 9.8058
 Frc consts  --     2.0324                 2.3434                10.4929
 IR Inten    --    17.5829                 9.1682                48.1055

                    16                     17                     18
                     A                      A                      A
 Frequencies --  1389.2867              1462.0555              1527.3095
 Red. masses --     8.9556                 2.6137                 3.3779
 Frc consts  --    10.1843                 3.2918                 4.6425
 IR Inten    --    14.7068                24.0587                15.3035

                    19                     20                     21
                     A                      A                      A
 Frequencies --  1845.0376              3266.3033              3625.6901
 Red. masses --    13.9759                 1.1002                 1.0833
 Frc consts  --    28.0311                 6.9158                 8.3903
 IR Inten    --    20.3544                 1.0769                90.9435

 - Thermochemistry -
 -------------------
 Temperature   298.150 Kelvin.  Pressure   1.00000 Atm.
 Atom     1 has atomic number  7 and mass  14.00307

 Molecular mass:    96.03102 amu.
 Principal axes and moments of inertia in atomic units:
                           1         2         3
     Eigenvalues --   201.36021 789.91706 991.27725
           X            0.99999  -0.00475  -0.00001
           Y            0.00475   0.99999   0.00001
           Z            0.00001  -0.00001   1.00000
 This molecule is an asymmetric top.
 Rotational symmetry number  1.
 Rotational temperatures (Kelvin)      0.43014     0.10965     0.08738
 Rotational constants (GHZ):           8.96275     2.28472     1.82062
 Zero-point vibrational energy     147649.6 (Joules/Mol)
                                   35.28911 (Kcal/Mol)
 Warning -- explicit consideration of   5 degrees of freedom as
           vibrations may cause significant error
 Vibrational temperatures:     84.79   358.90   409.17   739.38   864.18
          (Kelvin)            976.79   984.22  1051.58  1234.68  1421.53
                             1442.39  1594.78  1689.50  1854.91  1938.98
                             1998.87  2103.57  2197.46  2654.59  4699.48
                             5216.55

 Zero-point correction=                           0.056237 (Hartree/Particle)
 Thermal correction to Energy=                    0.061749
 Thermal correction to Enthalpy=                  0.062693
 Thermal correction to Gibbs Free Energy=         0.025715
 Sum of electronic and zero-point Energies=           -351.078996
 Sum of electronic and thermal Energies=              -351.073484
 Sum of electronic and thermal Enthalpies=            -351.072540
 Sum of electronic and thermal Free Energies=         -351.109519

                     E (Thermal)             CV                S
                      KCal/Mol        Cal/Mol-Kelvin    Cal/Mol-Kelvin
 Total                   38.748             18.537             77.828
 Electronic               0.000              0.000              1.377
 Translational            0.889              2.981             39.597
 Rotational               0.889              2.981             26.558
 Vibrational             36.971             12.576             10.295
 Vibration     1          0.596              1.974              4.493
 Vibration     2          0.662              1.764              1.734
 Vibration     3          0.683              1.703              1.507
 Vibration     4          0.869              1.219              0.624
 Vibration     5          0.959              1.030              0.449

 Optimization completed.
    -- Stationary point found.
 Normal termination of Gaussian 09 at Sat Mar 12 01:31:20 2005.
