 Gaussian 09, Revision B.01,
 Gaussian 09:  EM64L-G09RevB.01 12-Aug-2010

 ----------------------------------------------------------------------
 #p Temperature=298.15 opt=(maxcycles=1024) SCF=(maxcycles=1024) freq U
 B3LYP/aug-cc-pVDZ
 ----------------------------------------------------------------------

 --------------------------------------------------
 1H-1,2,4-Triazole-3-N2+-UB3LYP-aug-cc-pVDZ-Triplet
 --------------------------------------------------
 Symbolic Z-matrix:
 Charge =  1 Multiplicity = 3

 SCF Done:  E(UB3LYP) =  -350.718016904     A.U. after   25 cycles
 SCF Done:  E(UB3LYP) =  -350.749554090     A.U. after   18 cycles
 SCF Done:  E(UB3LYP) =  -350.754673953     A.U. after   19 cycles
 SCF Done:  E(UB3LYP) =  -350.755034823     A.U. after   19 cycles
 SCF Done:  E(UB3LYP) =  -350.755063887     A.U. after   19 cycles
 SCF Done:  E(UB3LYP) =  -350.755079032     A.U. after   19 cycles
 SCF Done:  E(UB3LYP) =  -350.755100247     A.U. after   21 cycles
 SCF Done:  E(UB3LYP) =  -350.755100850     A.U. after   15 cycles
 SCF Done:  E(UB3LYP) =  -350.755102626     A.U. after   13 cycles
 SCF Done:  E(UB3LYP) =  -350.755103272     A.U. after   15 cycles
 SCF Done:  E(UB3LYP) =  -350.763455835     A.U. after   18 cycles
 SCF Done:  E(UB3LYP) =  -350.763529808     A.U. after   15 cycles
 SCF Done:  E(UB3LYP) =  -350.763620249     A.U. after   19 cycles
 SCF Done:  E(UB3LYP) =  -350.763697948     A.U. after   16 cycles
 SCF Done:  E(UB3LYP) =  -350.763714875     A.U. after   15 cycles
 SCF Done:  E(UB3LYP) =  -350.763752265     A.U. after   16 cycles
 SCF Done:  E(UB3LYP) =  -350.763757589     A.U. after   15 cycles
 SCF Done:  E(UB3LYP) =  -350.763770819     A.U. after   14 cycles
 SCF Done:  E(UB3LYP) =  -350.763772432     A.U. after   13 cycles
 Optimization completed.
    -- Stationary point found.
 Normal termination of Gaussian 09 at Thu Apr 12 00:42:04 2018.

 ----------------------------------------------------------------------
 #P Geom=AllCheck Guess=TCheck SCRF=Check GenChk UB3LYP/Aug-CC-pVDZ Fre
 q
 ----------------------------------------------------------------------

 1H-1,2,4-Triazole-3-N2+-UB3LYP-aug-cc-pVDZ-Triplet
 --------------------------------------------------
 Redundant internal coordinates taken from checkpoint file:
 /home/ubuntu/g09/Gau-31865.chk
 Charge =  1 Multiplicity = 3

                         Standard orientation:
 ---------------------------------------------------------------------
 Center     Atomic      Atomic             Coordinates (Angstroms)
 Number     Number       Type             X           Y           Z
 ---------------------------------------------------------------------
      1          7           0        1.688068   -0.255955    0.341028
      2          7           0        2.562077    0.208873   -0.329169
      3          6           0        0.330293   -0.156511    0.082057
      4          6           0       -1.691538   -0.640500   -0.095310
      5          1           0       -2.656126   -1.136594   -0.196109
      6          7           0       -1.554897    0.768342   -0.021111
      7          1           0       -2.286187    1.484280   -0.036772
      8          7           0       -0.314140    1.113312    0.074152
      9          7           0       -0.508282   -1.201089   -0.020271
 ---------------------------------------------------------------------

 SCF Done:  E(UB3LYP) =  -350.763772432     A.U. after    1 cycles

 The electronic state is 3-A.
 Alpha  occ. eigenvalues --  -14.71080 -14.67617 -14.65856 -14.64866 -14.60296
 Alpha  occ. eigenvalues --  -10.58157 -10.55280  -1.38340  -1.31361  -1.20288
 Alpha  occ. eigenvalues --   -1.10723  -0.99656  -0.92297  -0.85104  -0.81392
 Alpha  occ. eigenvalues --   -0.76459  -0.73846  -0.70772  -0.66380  -0.63884
 Alpha  occ. eigenvalues --   -0.61042  -0.59409  -0.55701  -0.54448  -0.44332
 Alpha virt. eigenvalues --   -0.30830  -0.28186  -0.22543  -0.18250  -0.14721
 Alpha virt. eigenvalues --   -0.13794  -0.11312  -0.10269  -0.08510  -0.08299
 Alpha virt. eigenvalues --   -0.06531  -0.05956  -0.04872  -0.04418  -0.04062

  Beta  occ. eigenvalues --  -14.70815 -14.66889 -14.65467 -14.62987 -14.60488
  Beta  occ. eigenvalues --  -10.57347 -10.54841  -1.37142  -1.29119  -1.19923
  Beta  occ. eigenvalues --   -1.08484  -0.97551  -0.91520  -0.84373  -0.80224
  Beta  occ. eigenvalues --   -0.73682  -0.72638  -0.65761  -0.63756  -0.61427
  Beta  occ. eigenvalues --   -0.60102  -0.57669  -0.55532
  Beta virt. eigenvalues --   -0.44039  -0.28722  -0.27423  -0.25061  -0.20036
  Beta virt. eigenvalues --   -0.18089  -0.14264  -0.13558  -0.11021  -0.10043
  Beta virt. eigenvalues --   -0.08360  -0.08029  -0.06162  -0.05389  -0.04719

 Mulliken atomic charges:
              1
     1  N    0.115146
     2  N   -0.283109
     3  C    0.635109
     4  C    0.861887
     5  H   -0.178624
     6  N    0.137747
     7  H   -0.004072
     8  N   -0.167550
     9  N   -0.116534
 Sum of Mulliken atomic charges =   1.00000

 Dipole moment (field-independent basis, Debye):
    X=             -5.9955    Y=              1.2103    Z=             -0.1571  Tot=              6.1184
 Quadrupole moment (field-independent basis, Debye-Ang):
   XX=            -15.3784   YY=            -34.9388   ZZ=            -36.2853
   XY=             -2.5620   XZ=              1.1214   YZ=              0.5009

  Exact polarizability:  86.945   0.863  47.729   0.130  -0.632  32.058
 Approx polarizability: 143.994   2.982  80.557  -0.132  -2.960  51.663

                     1                      2                      3
                     A                      A                      A
 Frequencies --    67.7832               154.3359               352.0084
 Red. masses --    11.0985                 7.1937                10.0715
 Frc consts  --     0.0300                 0.1010                 0.7353
 IR Inten    --     1.4995                 5.0731                 3.1261

                     4                      5                      6
                     A                      A                      A
 Frequencies --   460.7362               540.8931               618.8008
 Red. masses --     9.9609                 3.0189                11.0121
 Frc consts  --     1.2458                 0.5204                 2.4844
 IR Inten    --     6.9798                 5.2315                17.5576

                     7                      8                      9
                     A                      A                      A
 Frequencies --   707.7417               774.9314               851.9006
 Red. masses --     2.1707                 2.0060                 5.3857
 Frc consts  --     0.6406                 0.7098                 2.3029
 IR Inten    --    15.2550                89.3798                 0.6367

                    10                     11                     12
                     A                      A                      A
 Frequencies --   901.0204               943.7910               974.1880
 Red. masses --     1.6117                 9.0767                 4.4124
 Frc consts  --     0.7709                 4.7635                 2.4672
 IR Inten    --     4.8258                 1.8781                 6.0610

                    13                     14                     15
                     A                      A                      A
 Frequencies --  1143.7427              1255.9375              1346.4975
 Red. masses --     2.6579                 2.0120                 5.2700
 Frc consts  --     2.0486                 1.8699                 5.6295
 IR Inten    --    75.0634                37.8877                76.0466

                    16                     17                     18
                     A                      A                      A
 Frequencies --  1398.5653              1408.8041              1528.9551
 Red. masses --     3.1895                 2.9170                 3.4557
 Frc consts  --     3.6757                 3.4111                 4.7597
 IR Inten    --   145.8950               205.6246                44.2751

                    19                     20                     21
                     A                      A                      A
 Frequencies --  1759.8464              3244.0305              3499.5707
 Red. masses --    13.9591                 1.1048                 1.0847
 Frc consts  --    25.4717                 6.8505                 7.8268
 IR Inten    --   104.3429                36.8070               291.7951

 - Thermochemistry -
 -------------------
 Temperature   298.150 Kelvin.  Pressure   1.00000 Atm.
 Atom     1 has atomic number  7 and mass  14.00307

 Molecular mass:    96.03102 amu.
 Principal axes and moments of inertia in atomic units:
                           1         2         3
     Eigenvalues --   212.66321 792.46658 980.40436
           X            0.99999  -0.00239   0.00284
           Y            0.00238   0.99999   0.00314
           Z           -0.00285  -0.00313   0.99999
 This molecule is an asymmetric top.
 Rotational symmetry number  1.
 Rotational temperatures (Kelvin)      0.40728     0.10930     0.08834
 Rotational constants (GHZ):           8.48638     2.27737     1.84081
 Zero-point vibrational energy     143157.6 (Joules/Mol)
                                   34.21549 (Kcal/Mol)
 Warning -- explicit consideration of   6 degrees of freedom as
           vibrations may cause significant error
 Vibrational temperatures:     97.52   222.05   506.46   662.90   778.22
          (Kelvin)            890.32  1018.28  1114.95  1225.69  1296.37
                             1357.90  1401.64  1645.59  1807.01  1937.31
                             2012.22  2026.95  2199.82  2532.02  4667.43
                             5035.10

 Zero-point correction=                           0.054526 (Hartree/Particle)
 Thermal correction to Energy=                    0.060216
 Thermal correction to Enthalpy=                  0.061161
 Thermal correction to Gibbs Free Energy=         0.023466
 Sum of electronic and zero-point Energies=           -350.709247
 Sum of electronic and thermal Energies=              -350.703556
 Sum of electronic and thermal Enthalpies=            -350.702612
 Sum of electronic and thermal Free Energies=         -350.740306

                     E (Thermal)             CV                S
                      KCal/Mol        Cal/Mol-Kelvin    Cal/Mol-Kelvin
 Total                   37.786             19.162             79.335
 Electronic               0.000              0.000              2.183
 Translational            0.889              2.981             39.597
 Rotational               0.889              2.981             26.605
 Vibrational             36.009             13.201             10.950
 Vibration     1          0.598              1.970              4.217
 Vibration     2          0.620              1.898              2.618
 Vibration     3          0.729              1.571              1.157
 Vibration     4          0.819              1.337              0.764
 Vibration     5          0.896              1.160              0.563
 Vibration     6          0.979              0.992              0.418

 Optimization completed.
    -- Stationary point found.
 Normal termination of Gaussian 09 at Thu Apr 12 00:44:27 2018.
