 Gaussian 09, Revision B.01,
 Gaussian 09:  EM64L-G09RevB.01 12-Aug-2010

 ----------------------------------------------------------------------
 #p Temperature=298.15 opt=(maxcycles=1024) SCF=(maxcycles=1024) freq U
 B3LYP/aug-cc-pVDZ
 ----------------------------------------------------------------------

 -----------------------------------------------
 1H-1,2,3-Triazole-4+-UB3LYP-aug-cc-pVDZ-Triplet
 -----------------------------------------------
 Symbolic Z-matrix:
 Charge =  1 Multiplicity = 3

 SCF Done:  E(UB3LYP) =  -241.173247684     A.U. after   18 cycles
 SCF Done:  E(UB3LYP) =  -241.196260441     A.U. after   16 cycles
 SCF Done:  E(UB3LYP) =  -241.198866722     A.U. after   16 cycles
 SCF Done:  E(UB3LYP) =  -241.199251942     A.U. after   18 cycles
 SCF Done:  E(UB3LYP) =  -241.199372418     A.U. after   20 cycles
 SCF Done:  E(UB3LYP) =  -241.199406334     A.U. after   18 cycles
 SCF Done:  E(UB3LYP) =  -241.199507916     A.U. after   14 cycles
 SCF Done:  E(UB3LYP) =  -241.199557113     A.U. after   20 cycles
 SCF Done:  E(UB3LYP) =  -241.199560601     A.U. after   20 cycles
 SCF Done:  E(UB3LYP) =  -241.199561468     A.U. after   20 cycles
 Optimization completed.
    -- Stationary point found.
 Normal termination of Gaussian 09 at Wed Apr 11 23:13:38 2018.

 ----------------------------------------------------------------------
 #P Geom=AllCheck Guess=TCheck SCRF=Check GenChk UB3LYP/Aug-CC-pVDZ Fre
 q
 ----------------------------------------------------------------------

 1H-1,2,3-Triazole-4+-UB3LYP-aug-cc-pVDZ-Triplet
 -----------------------------------------------
 Redundant internal coordinates taken from checkpoint file:
 /home/ubuntu/g09/Gau-17582.chk
 Charge =  1 Multiplicity = 3

                         Standard orientation:
 ---------------------------------------------------------------------
 Center     Atomic      Atomic             Coordinates (Angstroms)
 Number     Number       Type             X           Y           Z
 ---------------------------------------------------------------------
      1          6           0        0.310111    1.164932   -0.000062
      2          7           0       -0.784643   -0.699703    0.000202
      3          1           0       -1.417469   -1.503436    0.000482
      4          6           0       -1.035798    0.573062   -0.000168
      5          1           0       -2.017546    1.045007   -0.000024
      6          7           0        0.660264   -0.941622   -0.000352
      7          7           0        1.237113    0.217106    0.000282
 ---------------------------------------------------------------------

 SCF Done:  E(UB3LYP) =  -241.199561468     A.U. after    1 cycles

 The electronic state is 3-A.
 Alpha  occ. eigenvalues --  -14.71364 -14.70608 -14.64780 -10.56428 -10.56271
 Alpha  occ. eigenvalues --   -1.38447  -1.21462  -1.09486  -0.94009  -0.89935
 Alpha  occ. eigenvalues --   -0.83941  -0.75707  -0.74376  -0.66473  -0.61474
 Alpha  occ. eigenvalues --   -0.56801  -0.56731  -0.55818
 Alpha virt. eigenvalues --   -0.31337  -0.25499  -0.19098  -0.17280  -0.13955
 Alpha virt. eigenvalues --   -0.13433  -0.11746  -0.10864  -0.08569  -0.07620
 Alpha virt. eigenvalues --   -0.06090  -0.05009  -0.04684  -0.04650  -0.03127

  Beta  occ. eigenvalues --  -14.70571 -14.70193 -14.65001 -10.55942 -10.53827
  Beta  occ. eigenvalues --   -1.36950  -1.21047  -1.05938  -0.92659  -0.88538
  Beta  occ. eigenvalues --   -0.82502  -0.73059  -0.72482  -0.63145  -0.60543
  Beta  occ. eigenvalues --   -0.55362
  Beta virt. eigenvalues --   -0.44308  -0.38142  -0.27779  -0.20451  -0.18882
  Beta virt. eigenvalues --   -0.16468  -0.13292  -0.12873  -0.11447  -0.10184
  Beta virt. eigenvalues --   -0.08288  -0.06829  -0.05647  -0.04745  -0.04273

 Mulliken atomic charges:
              1
     1  C    0.204328
     2  N    0.177762
     3  H   -0.000594
     4  C    0.846111
     5  H   -0.144889
     6  N   -0.047629
     7  N   -0.035089
 Sum of Mulliken atomic charges =   1.00000

 Dipole moment (field-independent basis, Debye):
    X=             -4.9884    Y=              0.5773    Z=              0.0007  Tot=              5.0216
 Quadrupole moment (field-independent basis, Debye-Ang):
   XX=            -18.6834   YY=            -19.2745   ZZ=            -25.6667
   XY=              1.5688   XZ=             -0.0007   YZ=             -0.0026

  Exact polarizability:  41.976  -0.713  41.349   0.003  -0.002  22.671
 Approx polarizability:  69.049  -1.613  79.501   0.005   0.002  33.828

                     1                      2                      3
                     A                      A                      A
 Frequencies --   405.5159               513.6817               608.5645
 Red. masses --     6.4300                 8.2049                 4.1692
 Frc consts  --     0.6230                 1.2756                 0.9097
 IR Inten    --     0.0228                36.1208                 5.1260

                     4                      5                      6
                     A                      A                      A
 Frequencies --   747.1301               844.9696               869.1669
 Red. masses --     1.2124                 6.1234                 7.8297
 Frc consts  --     0.3987                 2.5759                 3.4850
 IR Inten    --   107.4568                 9.3793                14.8558

                     7                      8                      9
                     A                      A                      A
 Frequencies --   926.7808              1030.4225              1078.5120
 Red. masses --     1.4026                 2.4498                 6.4617
 Frc consts  --     0.7098                 1.5325                 4.4284
 IR Inten    --     0.1910                 0.2815                40.9405

                    10                     11                     12
                     A                      A                      A
 Frequencies --  1164.0153              1295.1827              1376.5429
 Red. masses --     1.6222                 4.8969                 1.8035
 Frc consts  --     1.2950                 4.8399                 2.0135
 IR Inten    --    16.2473                34.9418                39.7574

                    13                     14                     15
                     A                      A                      A
 Frequencies --  1544.8470              3246.8469              3513.0103
 Red. masses --     5.4956                 1.1041                 1.0875
 Frc consts  --     7.7275                 6.8576                 7.9074
 IR Inten    --    17.5959                66.5674               257.5587

 - Thermochemistry -
 -------------------
 Temperature   298.150 Kelvin.  Pressure   1.00000 Atm.
 Atom     1 has atomic number  6 and mass  12.00000

 Molecular mass:    68.02487 amu.
 Principal axes and moments of inertia in atomic units:
                           1         2         3
     Eigenvalues --   155.45780 200.48568 355.94346
           X            0.99999   0.00353  -0.00001
           Y           -0.00353   0.99999  -0.00002
           Z            0.00001   0.00002   1.00000
 This molecule is an asymmetric top.
 Rotational symmetry number  1.
 Rotational temperatures (Kelvin)      0.55715     0.43202     0.24334
 Rotational constants (GHZ):          11.60920     9.00185     5.07030
 Zero-point vibrational energy     114633.3 (Joules/Mol)
                                   27.39801 (Kcal/Mol)
 Warning -- explicit consideration of   3 degrees of freedom as
           vibrations may cause significant error
 Vibrational temperatures:    583.45   739.07   875.59  1074.95  1215.72
          (Kelvin)           1250.54  1333.43  1482.55  1551.74  1674.76
                             1863.48  1980.54  2222.69  4671.48  5054.43

 Zero-point correction=                           0.043662 (Hartree/Particle)
 Thermal correction to Energy=                    0.047541
 Thermal correction to Enthalpy=                  0.048486
 Thermal correction to Gibbs Free Energy=         0.016346
 Sum of electronic and zero-point Energies=           -241.155900
 Sum of electronic and thermal Energies=              -241.152020
 Sum of electronic and thermal Enthalpies=            -241.151076
 Sum of electronic and thermal Free Energies=         -241.183216

                     E (Thermal)             CV                S
                      KCal/Mol        Cal/Mol-Kelvin    Cal/Mol-Kelvin
 Total                   29.833             13.185             67.644
 Electronic               0.000              0.000              2.183
 Translational            0.889              2.981             38.570
 Rotational               0.889              2.981             23.921
 Vibrational             28.055              7.223              2.971
 Vibration     1          0.770              1.458              0.943
 Vibration     2          0.869              1.220              0.625
 Vibration     3          0.967              1.014              0.435

 Optimization completed.
    -- Stationary point found.
 Normal termination of Gaussian 09 at Wed Apr 11 23:14:33 2018.
