 Gaussian 09, Revision B.01,
 Gaussian 09:  EM64L-G09RevB.01 12-Aug-2010

 ----------------------------------------------------------------------
 #p Temperature=298.15 opt=(maxcycles=1024) SCF=(maxcycles=1024) freq U
 B3LYP/aug-cc-pVDZ
 ----------------------------------------------------------------------

 -----------------------------------------------
 1H-1,2,3-Triazole-5+-UB3LYP-aug-cc-pVDZ-Triplet
 -----------------------------------------------
 Symbolic Z-matrix:
 Charge =  1 Multiplicity = 3

 SCF Done:  E(UB3LYP) =  -241.174468740     A.U. after   17 cycles
 SCF Done:  E(UB3LYP) =  -241.192203603     A.U. after   16 cycles
 SCF Done:  E(UB3LYP) =  -241.193938201     A.U. after   17 cycles
 SCF Done:  E(UB3LYP) =  -241.194318832     A.U. after   20 cycles
 SCF Done:  E(UB3LYP) =  -241.194436986     A.U. after   16 cycles
 SCF Done:  E(UB3LYP) =  -241.194737063     A.U. after   16 cycles
 SCF Done:  E(UB3LYP) =  -241.195006286     A.U. after   16 cycles
 SCF Done:  E(UB3LYP) =  -241.195441074     A.U. after   18 cycles
 SCF Done:  E(UB3LYP) =  -241.196268151     A.U. after   17 cycles
 SCF Done:  E(UB3LYP) =  -241.105958835     A.U. after   17 cycles
 SCF Done:  E(UB3LYP) =  -241.247751619     A.U. after   13 cycles
 SCF Done:  E(UB3LYP) =  -241.247780556     A.U. after   13 cycles
 SCF Done:  E(UB3LYP) =  -241.247794546     A.U. after   12 cycles
 SCF Done:  E(UB3LYP) =  -241.247801213     A.U. after   12 cycles
 SCF Done:  E(UB3LYP) =  -241.247805214     A.U. after   12 cycles
 SCF Done:  E(UB3LYP) =  -241.247806713     A.U. after   12 cycles
 SCF Done:  E(UB3LYP) =  -241.247806733     A.U. after    8 cycles
 SCF Done:  E(UB3LYP) =  -241.247807223     A.U. after   12 cycles
 SCF Done:  E(UB3LYP) =  -241.247806832     A.U. after   12 cycles
 Optimization completed.
    -- Stationary point found.
 Normal termination of Gaussian 09 at Wed Apr 11 23:50:28 2018.

 ----------------------------------------------------------------------
 #P Geom=AllCheck Guess=TCheck SCRF=Check GenChk UB3LYP/Aug-CC-pVDZ Fre
 q
 ----------------------------------------------------------------------

 1H-1,2,3-Triazole-5+-UB3LYP-aug-cc-pVDZ-Triplet
 -----------------------------------------------
 Redundant internal coordinates taken from checkpoint file:
 /home/ubuntu/g09/Gau-25077.chk
 Charge =  1 Multiplicity = 3

                         Standard orientation:
 ---------------------------------------------------------------------
 Center     Atomic      Atomic             Coordinates (Angstroms)
 Number     Number       Type             X           Y           Z
 ---------------------------------------------------------------------
      1          6           0       -1.005788    0.252802   -0.009464
      2          6           0        0.225398    0.928653   -0.002091
      3          1           0        0.266550    2.017699   -0.005187
      4          7           0       -1.962703   -0.396578    0.003803
      5          1           0       -2.803053   -0.966904    0.015439
      6          7           0        1.544700   -0.978785   -0.006602
      7          7           0        1.449266    0.212574    0.011238
 ---------------------------------------------------------------------

 SCF Done:  E(UB3LYP) =  -241.247806832     A.U. after    1 cycles

 The electronic state is 3-A.
 Alpha  occ. eigenvalues --  -14.68570 -14.65068 -14.63391 -10.57635 -10.54475
 Alpha  occ. eigenvalues --   -1.30631  -1.25677  -1.07442  -0.94352  -0.89148
 Alpha  occ. eigenvalues --   -0.77212  -0.71148  -0.70000  -0.66529  -0.66138
 Alpha  occ. eigenvalues --   -0.62432  -0.52432  -0.43966
 Alpha virt. eigenvalues --   -0.29556  -0.28854  -0.19394  -0.18864  -0.15502
 Alpha virt. eigenvalues --   -0.12296  -0.10742  -0.10524  -0.08096  -0.07410
 Alpha virt. eigenvalues --   -0.06598  -0.05537  -0.05122  -0.03114  -0.02614

  Beta  occ. eigenvalues --  -14.68002 -14.64977 -14.61247 -10.57722 -10.53012
  Beta  occ. eigenvalues --   -1.28319  -1.24712  -1.03755  -0.93293  -0.87368
  Beta  occ. eigenvalues --   -0.75743  -0.68297  -0.67022  -0.64103  -0.63668
  Beta  occ. eigenvalues --   -0.58527
  Beta virt. eigenvalues --   -0.40142  -0.30522  -0.27205  -0.25841  -0.18386
  Beta virt. eigenvalues --   -0.15996  -0.15170  -0.11880  -0.10396  -0.09816
  Beta virt. eigenvalues --   -0.07548  -0.06852  -0.06207  -0.05243  -0.04642

 Mulliken atomic charges:
              1
     1  C    0.459204
     2  C    0.942912
     3  H   -0.310304
     4  N    0.034030
     5  H    0.095696
     6  N   -0.307246
     7  N    0.085709
 Sum of Mulliken atomic charges =   1.00000

 Dipole moment (field-independent basis, Debye):
    X=             -5.5590    Y=              1.1906    Z=              0.0063  Tot=              5.6851
 Quadrupole moment (field-independent basis, Debye-Ang):
   XX=             -9.8612   YY=            -20.2675   ZZ=            -25.6943
   XY=              5.7605   XZ=             -0.0900   YZ=             -0.0773

  Exact polarizability:  62.307   0.480  39.824   0.013   0.002  23.431
 Approx polarizability: 100.930   2.641  70.320  -0.019   0.010  33.418

                     1                      2                      3
                     A                      A                      A
 Frequencies --   105.1490               145.5841               298.1674
 Red. masses --     7.0916                 6.2854                 9.5353
 Frc consts  --     0.0462                 0.0785                 0.4995
 IR Inten    --     0.7864                15.1938                17.7883

                     4                      5                      6
                     A                      A                      A
 Frequencies --   396.8224               445.2732               545.3529
 Red. masses --     2.5421                 1.2472                 1.2050
 Frc consts  --     0.2358                 0.1457                 0.2111
 IR Inten    --    41.2538               103.8277               119.0567

                     7                      8                      9
                     A                      A                      A
 Frequencies --   627.6639               673.0918               839.0110
 Red. masses --    11.6003                 1.7418                 6.8162
 Frc consts  --     2.6926                 0.4649                 2.8270
 IR Inten    --    13.6008                 7.2560                22.5430

                    10                     11                     12
                     A                      A                      A
 Frequencies --   992.6125              1261.6327              1623.2634
 Red. masses --     5.3210                 1.2248                 9.7447
 Frc consts  --     3.0889                 1.1486                15.1286
 IR Inten    --    15.9455                29.6345                57.0055

                    13                     14                     15
                     A                      A                      A
 Frequencies --  2256.3353              3219.4848              3638.6066
 Red. masses --     6.8108                 1.0912                 1.1326
 Frc consts  --    20.4294                 6.6641                 8.8346
 IR Inten    --   122.2849                59.9741               922.2698

 - Thermochemistry -
 -------------------
 Temperature   298.150 Kelvin.  Pressure   1.00000 Atm.
 Atom     1 has atomic number  6 and mass  12.00000

 Molecular mass:    68.02487 amu.
 Principal axes and moments of inertia in atomic units:
                           1         2         3
     Eigenvalues --   115.35436 491.06902 606.39526
           X            0.99954   0.03029  -0.00034
           Y           -0.03029   0.99954  -0.00081
           Z            0.00032   0.00082   1.00000
 This molecule is an asymmetric top.
 Rotational symmetry number  1.
 Rotational temperatures (Kelvin)      0.75085     0.17638     0.14283
 Rotational constants (GHZ):          15.64519     3.67513     2.97618
 Zero-point vibrational energy     102089.6 (Joules/Mol)
                                   24.40000 (Kcal/Mol)
 Warning -- explicit consideration of   6 degrees of freedom as
           vibrations may cause significant error
 Vibrational temperatures:    151.29   209.46   429.00   570.94   640.65
          (Kelvin)            784.64   903.07   968.43  1207.15  1428.15
                             1815.21  2335.51  3246.36  4632.11  5235.14

 Zero-point correction=                           0.038884 (Hartree/Particle)
 Thermal correction to Energy=                    0.044679
 Thermal correction to Enthalpy=                  0.045623
 Thermal correction to Gibbs Free Energy=         0.009178
 Sum of electronic and zero-point Energies=           -241.208923
 Sum of electronic and thermal Energies=              -241.203128
 Sum of electronic and thermal Enthalpies=            -241.202184
 Sum of electronic and thermal Free Energies=         -241.238629

                     E (Thermal)             CV                S
                      KCal/Mol        Cal/Mol-Kelvin    Cal/Mol-Kelvin
 Total                   28.037             18.540             76.706
 Electronic               0.000              0.000              2.183
 Translational            0.889              2.981             38.570
 Rotational               0.889              2.981             25.044
 Vibrational             26.259             12.578             10.909
 Vibration     1          0.605              1.945              3.357
 Vibration     2          0.617              1.907              2.729
 Vibration     3          0.691              1.677              1.427
 Vibration     4          0.763              1.477              0.974
 Vibration     5          0.805              1.371              0.810
 Vibration     6          0.901              1.150              0.554

 Normal termination of Gaussian 09 at Wed Apr 11 23:51:20 2018.
