 Gaussian 09, Revision B.01,
 Gaussian 09:  EM64L-G09RevB.01 12-Aug-2010

 ----------------------------------------------------------------------
 #p Temperature=298.15 opt=(maxcycles=1024) SCF=(maxcycles=1024) freq U
 B3LYP/aug-cc-pVDZ
 ----------------------------------------------------------------------

 --------------------------------------------------
 2H-1,2,3-Triazole-4-N2+-UB3LYP-aug-cc-pVDZ-Singlet
 --------------------------------------------------
 Symbolic Z-matrix:
 Charge =  1 Multiplicity = 1

 SCF Done:  E(UB3LYP) =  -350.793990347     A.U. after   14 cycles
 SCF Done:  E(UB3LYP) =  -350.833896313     A.U. after   13 cycles
 SCF Done:  E(UB3LYP) =  -350.841803996     A.U. after   12 cycles
 SCF Done:  E(UB3LYP) =  -350.842054737     A.U. after   12 cycles
 SCF Done:  E(UB3LYP) =  -350.842118354     A.U. after   15 cycles
 SCF Done:  E(UB3LYP) =  -350.842362459     A.U. after   15 cycles
 SCF Done:  E(UB3LYP) =  -350.842357826     A.U. after   17 cycles
 SCF Done:  E(UB3LYP) =  -350.842365603     A.U. after   17 cycles
 Optimization completed.
    -- Stationary point found.
 Normal termination of Gaussian 09 at Thu Apr 12 02:04:12 2018.

 ----------------------------------------------------------------------
 #P Geom=AllCheck Guess=TCheck SCRF=Check GenChk UB3LYP/Aug-CC-pVDZ Fre
 q
 ----------------------------------------------------------------------

 2H-1,2,3-Triazole-4-N2+-UB3LYP-aug-cc-pVDZ-Singlet
 --------------------------------------------------
 Redundant internal coordinates taken from checkpoint file:
 /home/ubuntu/g09/Gau-22381.chk
 Charge =  1 Multiplicity = 1

                         Standard orientation:
 ---------------------------------------------------------------------
 Center     Atomic      Atomic             Coordinates (Angstroms)
 Number     Number       Type             X           Y           Z
 ---------------------------------------------------------------------
      1          7           0       -1.665268   -0.024551    0.000014
      2          7           0       -2.778235   -0.024861    0.000101
      3          6           0       -0.301314    0.030193   -0.000058
      4          6           0        0.560903    1.159592    0.000023
      5          1           0        0.344849    2.223123    0.000177
      6          7           0        1.625954   -0.658010    0.000388
      7          1           0        2.426701   -1.290476    0.000430
      8          7           0        0.407049   -1.116728   -0.000355
      9          7           0        1.792060    0.671100   -0.000204
 ---------------------------------------------------------------------

 SCF Done:  E(UB3LYP) =  -350.842365603     A.U. after    1 cycles

 The electronic state is 1-A.
 Alpha  occ. eigenvalues --  -14.76489 -14.73121 -14.68754 -14.63018 -14.60408
 Alpha  occ. eigenvalues --  -10.53017 -10.47148  -1.41884  -1.36063  -1.15990
 Alpha  occ. eigenvalues --   -1.12159  -1.01522  -0.88615  -0.81760  -0.79161
 Alpha  occ. eigenvalues --   -0.77196  -0.73640  -0.72510  -0.70856  -0.68913
 Alpha  occ. eigenvalues --   -0.58115  -0.53687  -0.53087  -0.52819
 Alpha virt. eigenvalues --   -0.32794  -0.32064  -0.23754  -0.16292  -0.16183
 Alpha virt. eigenvalues --   -0.14382  -0.11892  -0.11406  -0.10404  -0.09156
 Alpha virt. eigenvalues --   -0.08117  -0.05694  -0.05458  -0.05092  -0.04674

  Beta  occ. eigenvalues --  -14.76489 -14.73121 -14.68754 -14.63018 -14.60408
  Beta  occ. eigenvalues --  -10.53017 -10.47148  -1.41884  -1.36063  -1.15990
  Beta  occ. eigenvalues --   -1.12159  -1.01522  -0.88615  -0.81760  -0.79161
  Beta  occ. eigenvalues --   -0.77196  -0.73640  -0.72510  -0.70856  -0.68913
  Beta  occ. eigenvalues --   -0.58115  -0.53687  -0.53087  -0.52819
  Beta virt. eigenvalues --   -0.32794  -0.32064  -0.23754  -0.16292  -0.16183
  Beta virt. eigenvalues --   -0.14382  -0.11892  -0.11406  -0.10404  -0.09156
  Beta virt. eigenvalues --   -0.08117  -0.05694  -0.05458  -0.05092  -0.04674

 Mulliken atomic charges:
              1
     1  N    0.586723
     2  N   -0.415615
     3  C    0.607400
     4  C    0.836306
     5  H   -0.439408
     6  N    0.335793
     7  H   -0.007599
     8  N   -0.203714
     9  N   -0.299884
 Sum of Mulliken atomic charges =   1.00000

 Dipole moment (field-independent basis, Debye):
    X=             -1.1376    Y=              0.2997    Z=              0.0010  Tot=              1.1765
 Quadrupole moment (field-independent basis, Debye-Ang):
   XX=            -19.9583   YY=            -30.4192   ZZ=            -36.4733
   XY=             -6.1072   XZ=              0.0019   YZ=             -0.0006

  Exact polarizability:  87.643  -0.186  48.922   0.001   0.000  29.788
 Approx polarizability: 175.775  -0.509  84.489   0.004   0.001  45.207

                     1                      2                      3
                     A                      A                      A
 Frequencies --   181.6060               185.5947               513.9883
 Red. masses --     9.2785                 8.6420                12.0386
 Frc consts  --     0.1803                 0.1754                 1.8738
 IR Inten    --     0.0001                 0.3346                 0.8193

                     4                      5                      6
                     A                      A                      A
 Frequencies --   531.5668               592.3625               652.0871
 Red. masses --     9.3956                11.8273                 4.7446
 Frc consts  --     1.5642                 2.4452                 1.1887
 IR Inten    --     0.1605                13.4363                 7.8949

                     7                      8                      9
                     A                      A                      A
 Frequencies --   681.9315               760.1751               882.9624
 Red. masses --    13.0538                 1.1193                 1.3249
 Frc consts  --     3.5766                 0.3811                 0.6086
 IR Inten    --     3.3866                85.8053                21.1441

                    10                     11                     12
                     A                      A                      A
 Frequencies --   969.8046              1017.7830              1122.1700
 Red. masses --     5.4293                 6.0640                 2.9825
 Frc consts  --     3.0086                 3.7010                 2.2129
 IR Inten    --    12.0246                37.4804                15.8229

                    13                     14                     15
                     A                      A                      A
 Frequencies --  1198.5226              1310.1420              1348.8562
 Red. masses --     2.0221                 4.6273                 8.0566
 Frc consts  --     1.7114                 4.6797                 8.6364
 IR Inten    --    48.4519                 6.7564                45.8782

                    16                     17                     18
                     A                      A                      A
 Frequencies --  1394.4161              1412.7530              1528.6682
 Red. masses --     2.4399                 6.7584                 2.3014
 Frc consts  --     2.7952                 7.9474                 3.1686
 IR Inten    --    48.0550                11.4599                 4.5652

                    19                     20                     21
                     A                      A                      A
 Frequencies --  2362.5941              3278.5147              3549.9337
 Red. masses --    13.9797                 1.1034                 1.0865
 Frc consts  --    45.9755                 6.9874                 8.0673
 IR Inten    --   148.8104                31.8315               300.2638

 - Thermochemistry -
 -------------------
 Temperature   298.150 Kelvin.  Pressure   1.00000 Atm.
 Atom     1 has atomic number  7 and mass  14.00307

 Molecular mass:    96.03102 amu.
 Principal axes and moments of inertia in atomic units:
                           1         2         3
     Eigenvalues --   187.90386 864.541991052.44581
           X            0.99993  -0.01224   0.00000
           Y            0.01224   0.99993   0.00000
           Z            0.00000   0.00000   1.00000
 This molecule is an asymmetric top.
 Rotational symmetry number  1.
 Rotational temperatures (Kelvin)      0.46095     0.10018     0.08230
 Rotational constants (GHZ):           9.60460     2.08751     1.71481
 Zero-point vibrational energy     152382.9 (Joules/Mol)
                                   36.42039 (Kcal/Mol)
 Warning -- explicit consideration of   5 degrees of freedom as
           vibrations may cause significant error
 Vibrational temperatures:    261.29   267.03   739.51   764.81   852.28
          (Kelvin)            938.21   981.15  1093.72  1270.38  1395.33
                             1464.36  1614.55  1724.40  1885.00  1940.70
                             2006.25  2032.63  2199.41  3399.24  4717.05
                             5107.56

 Zero-point correction=                           0.058040 (Hartree/Particle)
 Thermal correction to Energy=                    0.063182
 Thermal correction to Enthalpy=                  0.064126
 Thermal correction to Gibbs Free Energy=         0.028984
 Sum of electronic and zero-point Energies=           -350.784326
 Sum of electronic and thermal Energies=              -350.779183
 Sum of electronic and thermal Enthalpies=            -350.778239
 Sum of electronic and thermal Free Energies=         -350.813382

                     E (Thermal)             CV                S
                      KCal/Mol        Cal/Mol-Kelvin    Cal/Mol-Kelvin
 Total                   39.647             17.949             73.964
 Electronic               0.000              0.000              0.000
 Translational            0.889              2.981             39.597
 Rotational               0.889              2.981             26.639
 Vibrational             37.870             11.988              7.728
 Vibration     1          0.630              1.865              2.312
 Vibration     2          0.632              1.860              2.271
 Vibration     3          0.869              1.219              0.624
 Vibration     4          0.887              1.180              0.584
 Vibration     5          0.950              1.048              0.463

 Optimization completed.
    -- Stationary point found.
 Normal termination of Gaussian 09 at Thu Apr 12 02:06:28 2018.
