 Gaussian 09, Revision B.01,
 Gaussian 09:  EM64L-G09RevB.01 12-Aug-2010

 ----------------------------------------------------------------------
 #p Temperature=298.15 opt=(maxcycles=1024) SCF=(maxcycles=1024) freq U
 B3LYP/aug-cc-pVDZ
 ----------------------------------------------------------------------

 -----------------------------------------------
 2H-1,2,3-Triazole-4+-UB3LYP-aug-cc-pVDZ-Singlet
 -----------------------------------------------
 Symbolic Z-matrix:
 Charge =  1 Multiplicity = 1

 SCF Done:  E(UB3LYP) =  -241.118749203     A.U. after   22 cycles
 SCF Done:  E(UB3LYP) =  -241.171273906     A.U. after   17 cycles
 SCF Done:  E(UB3LYP) =  -241.190932142     A.U. after   14 cycles
 SCF Done:  E(UB3LYP) =  -241.192412685     A.U. after   13 cycles
 SCF Done:  E(UB3LYP) =  -241.192736405     A.U. after   13 cycles
 SCF Done:  E(UB3LYP) =  -241.192078004     A.U. after   14 cycles
 SCF Done:  E(UB3LYP) =  -241.192796666     A.U. after   13 cycles
 SCF Done:  E(UB3LYP) =  -241.192837608     A.U. after   15 cycles
 SCF Done:  E(UB3LYP) =  -241.192840653     A.U. after   15 cycles
 Optimization completed.
    -- Stationary point found.
 Normal termination of Gaussian 09 at Thu Apr 12 02:29:12 2018.

 ----------------------------------------------------------------------
 #P Geom=AllCheck Guess=TCheck SCRF=Check GenChk UB3LYP/Aug-CC-pVDZ Fre
 q
 ----------------------------------------------------------------------

 2H-1,2,3-Triazole-4+-UB3LYP-aug-cc-pVDZ-Singlet
 -----------------------------------------------
 Redundant internal coordinates taken from checkpoint file:
 /home/ubuntu/g09/Gau-25826.chk
 Charge =  1 Multiplicity = 1

                         Standard orientation:
 ---------------------------------------------------------------------
 Center     Atomic      Atomic             Coordinates (Angstroms)
 Number     Number       Type             X           Y           Z
 ---------------------------------------------------------------------
      1          6           0       -0.187077   -1.014205    0.000024
      2          6           0       -1.264227   -0.167285   -0.000030
      3          1           0       -2.346569   -0.223934    0.000137
      4          7           0        0.809099    0.607955   -0.000003
      5          1           0        1.549214    1.312482    0.000134
      6          7           0        1.047595   -0.696462   -0.000016
      7          7           0       -0.498811    0.945706   -0.000015
 ---------------------------------------------------------------------

 SCF Done:  E(UB3LYP) =  -241.192840653     A.U. after    1 cycles

 The electronic state is 1-A.
 Alpha  occ. eigenvalues --  -14.73212 -14.67960 -14.67580 -10.59796 -10.53534
 Alpha  occ. eigenvalues --   -1.42061  -1.20352  -1.12227  -0.93477  -0.88426
 Alpha  occ. eigenvalues --   -0.83751  -0.76602  -0.75507  -0.65468  -0.58365
 Alpha  occ. eigenvalues --   -0.57665  -0.56811
 Alpha virt. eigenvalues --   -0.43411  -0.29380  -0.22899  -0.17434  -0.14343
 Alpha virt. eigenvalues --   -0.13413  -0.11674  -0.10904  -0.09630  -0.08327
 Alpha virt. eigenvalues --   -0.06365  -0.05591  -0.04942  -0.04599  -0.03442

  Beta  occ. eigenvalues --  -14.73212 -14.67960 -14.67580 -10.59796 -10.53534
  Beta  occ. eigenvalues --   -1.42061  -1.20352  -1.12227  -0.93477  -0.88426
  Beta  occ. eigenvalues --   -0.83751  -0.76602  -0.75507  -0.65468  -0.58365
  Beta  occ. eigenvalues --   -0.57665  -0.56811
  Beta virt. eigenvalues --   -0.43411  -0.29380  -0.22899  -0.17434  -0.14343
  Beta virt. eigenvalues --   -0.13413  -0.11674  -0.10904  -0.09630  -0.08327
  Beta virt. eigenvalues --   -0.06365  -0.05591  -0.04942  -0.04599  -0.03442

 Mulliken atomic charges:
              1
     1  C    0.323943
     2  C    0.866825
     3  H   -0.207962
     4  N    0.119814
     5  H    0.047839
     6  N   -0.061044
     7  N   -0.089414
 Sum of Mulliken atomic charges =   1.00000

 Dipole moment (field-independent basis, Debye):
    X=             -0.8851    Y=             -0.4518    Z=              0.0003  Tot=              0.9938
 Quadrupole moment (field-independent basis, Debye-Ang):
   XX=            -15.4128   YY=            -19.9217   ZZ=            -26.7421
   XY=              6.0650   XZ=              0.0001   YZ=              0.0003

  Exact polarizability:  43.826  -0.300  42.535   0.000   0.000  22.682
 Approx polarizability:  80.853  -6.998 108.019   0.000  -0.001  32.575

                     1                      2                      3
                     A                      A                      A
 Frequencies --   310.3474               546.6059               702.1546
 Red. masses --     7.2676                 2.0131                 2.3616
 Frc consts  --     0.4124                 0.3544                 0.6860
 IR Inten    --     0.3175                47.5287                51.5496

                     4                      5                      6
                     A                      A                      A
 Frequencies --   725.6358               785.8149               832.1721
 Red. masses --     9.5271                 1.1465                 7.4850
 Frc consts  --     2.9556                 0.4171                 3.0540
 IR Inten    --   125.8728                31.9007                42.0237

                     7                      8                      9
                     A                      A                      A
 Frequencies --  1000.8184              1153.0232              1177.8481
 Red. masses --     2.7856                 4.6834                 1.7461
 Frc consts  --     1.6439                 3.6685                 1.4272
 IR Inten    --    34.7185                 3.2373                 1.1086

                    10                     11                     12
                     A                      A                      A
 Frequencies --  1247.3723              1315.1753              1455.5992
 Red. masses --     7.3403                 3.8512                 1.7602
 Frc consts  --     6.7291                 3.9247                 2.1974
 IR Inten    --     5.5295                30.3879                28.6666

                    13                     14                     15
                     A                      A                      A
 Frequencies --  1578.9187              3306.1313              3527.6711
 Red. masses --     5.3812                 1.1109                 1.0868
 Frc consts  --     7.9041                 7.1544                 7.9685
 IR Inten    --    12.8303               109.1583               283.0251

 - Thermochemistry -
 -------------------
 Temperature   298.150 Kelvin.  Pressure   1.00000 Atm.
 Atom     1 has atomic number  6 and mass  12.00000

 Molecular mass:    68.02487 amu.
 Principal axes and moments of inertia in atomic units:
                           1         2         3
     Eigenvalues --   137.71721 199.81136 337.52857
           X            0.98914   0.14700   0.00000
           Y           -0.14700   0.98914   0.00000
           Z            0.00000   0.00000   1.00000
 This molecule is an asymmetric top.
 Rotational symmetry number  1.
 Rotational temperatures (Kelvin)      0.62893     0.43348     0.25661
 Rotational constants (GHZ):          13.10469     9.03223     5.34693
 Zero-point vibrational energy     117624.5 (Joules/Mol)
                                   28.11294 (Kcal/Mol)
 Warning -- explicit consideration of   2 degrees of freedom as
           vibrations may cause significant error
 Vibrational temperatures:    446.52   786.44  1010.24  1044.03  1130.61
          (Kelvin)           1197.31  1439.95  1658.94  1694.66  1794.69
                             1892.24  2094.28  2271.71  4756.78  5075.53

 Zero-point correction=                           0.044801 (Hartree/Particle)
 Thermal correction to Energy=                    0.048708
 Thermal correction to Enthalpy=                  0.049653
 Thermal correction to Gibbs Free Energy=         0.018541
 Sum of electronic and zero-point Energies=           -241.148040
 Sum of electronic and thermal Energies=              -241.144132
 Sum of electronic and thermal Enthalpies=            -241.143188
 Sum of electronic and thermal Free Energies=         -241.174299

                     E (Thermal)             CV                S
                      KCal/Mol        Cal/Mol-Kelvin    Cal/Mol-Kelvin
 Total                   30.565             12.937             65.479
 Electronic               0.000              0.000              0.000
 Translational            0.889              2.981             38.570
 Rotational               0.889              2.981             23.745
 Vibrational             28.788              6.975              3.165
 Vibration     1          0.699              1.654              1.360
 Vibration     2          0.902              1.147              0.551

 Optimization completed.
    -- Stationary point found.
 Normal termination of Gaussian 09 at Thu Apr 12 02:30:05 2018.
