 Gaussian 09, Revision B.01,
 Gaussian 09:  EM64L-G09RevB.01 12-Aug-2010

 ----------------------------------------------------------------------
 #p Temperature=298.15 opt=(maxcycles=1024) SCF=(maxcycles=1024) freq U
 B3LYP/aug-cc-pVDZ
 ----------------------------------------------------------------------

 ----------------------------------------------
 2H-1,2,3-Triazole-4-UB3LYP-aug-cc-pVDZ-Doublet
 ----------------------------------------------
 Symbolic Z-matrix:
 Charge =  0 Multiplicity = 2

 SCF Done:  E(UB3LYP) =  -241.532224586     A.U. after   17 cycles
 SCF Done:  E(UB3LYP) =  -241.564066438     A.U. after   17 cycles
 SCF Done:  E(UB3LYP) =  -241.568769017     A.U. after   16 cycles
 SCF Done:  E(UB3LYP) =  -241.569046787     A.U. after   13 cycles
 SCF Done:  E(UB3LYP) =  -241.568902159     A.U. after   17 cycles
 SCF Done:  E(UB3LYP) =  -241.569059081     A.U. after   16 cycles
 SCF Done:  E(UB3LYP) =  -241.569067555     A.U. after   17 cycles
 SCF Done:  E(UB3LYP) =  -241.569067935     A.U. after   17 cycles
 SCF Done:  E(UB3LYP) =  -241.569068298     A.U. after   10 cycles
 Optimization completed.
    -- Stationary point found.
 Normal termination of Gaussian 09 at Sat Mar 12 02:14:39 2005.

 ----------------------------------------------------------------------
 #P Geom=AllCheck Guess=TCheck SCRF=Check GenChk UB3LYP/Aug-CC-pVDZ Fre
 q
 ----------------------------------------------------------------------

 2H-1,2,3-Triazole-4-UB3LYP-aug-cc-pVDZ-Doublet
 ----------------------------------------------
 Redundant internal coordinates taken from checkpoint file:
 /home/ubuntu/g09/Gau-6523.chk
 Charge =  0 Multiplicity = 2

                         Standard orientation:
 ---------------------------------------------------------------------
 Center     Atomic      Atomic             Coordinates (Angstroms)
 Number     Number       Type             X           Y           Z
 ---------------------------------------------------------------------
      1          6           0       -0.216946    1.170142    0.000279
      2          6           0       -1.175160    0.136780   -0.000316
      3          1           0       -2.257126    0.163968    0.000529
      4          7           0        0.784188   -0.631775    0.000030
      5          1           0        1.542628   -1.300862    0.000361
      6          7           0        1.002064    0.690071   -0.000174
      7          7           0       -0.490948   -1.016101    0.000049
 ---------------------------------------------------------------------

 SCF Done:  E(UB3LYP) =  -241.569068298     A.U. after    1 cycles

 The electronic state is 2-A.
 Alpha  occ. eigenvalues --  -14.46079 -14.39537 -14.39274 -10.26031 -10.24319
 Alpha  occ. eigenvalues --   -1.13098  -0.92066  -0.85098  -0.65813  -0.63160
 Alpha  occ. eigenvalues --   -0.56930  -0.49364  -0.47782  -0.38393  -0.32600
 Alpha  occ. eigenvalues --   -0.31827  -0.29980  -0.29826
 Alpha virt. eigenvalues --   -0.03533  -0.01255   0.00728   0.02236   0.03754
 Alpha virt. eigenvalues --    0.04636   0.05357   0.06171   0.07894   0.09110
 Alpha virt. eigenvalues --    0.09759   0.10556   0.11099   0.12036   0.13985

  Beta  occ. eigenvalues --  -14.45909 -14.39441 -14.39193 -10.24413 -10.24194
  Beta  occ. eigenvalues --   -1.12621  -0.91639  -0.84156  -0.65394  -0.61272
  Beta  occ. eigenvalues --   -0.55936  -0.49149  -0.47479  -0.36617  -0.32105
  Beta  occ. eigenvalues --   -0.31565  -0.28998
  Beta virt. eigenvalues --   -0.13560  -0.03372  -0.01214   0.00879   0.03799
  Beta virt. eigenvalues --    0.04307   0.04667   0.05377   0.06307   0.08016
  Beta virt. eigenvalues --    0.09194   0.09973   0.10606   0.11216   0.12190

 Mulliken atomic charges:
              1
     1  C   -0.092994
     2  C    0.787605
     3  H   -0.319649
     4  N    0.190875
     5  H   -0.059025
     6  N   -0.222609
     7  N   -0.284203
 Sum of Mulliken atomic charges =   0.00000

 Dipole moment (field-independent basis, Debye):
    X=              0.0088    Y=             -0.8523    Z=              0.0009  Tot=              0.8524
 Quadrupole moment (field-independent basis, Debye-Ang):
   XX=            -25.0313   YY=            -30.1549   ZZ=            -29.6799
   XY=             -5.6256   XZ=              0.0000   YZ=             -0.0009

  Exact polarizability:  50.695  -1.620  47.903   0.001   0.003  29.414
 Approx polarizability:  85.034  -3.819  82.005   0.001   0.004  42.148

                     1                      2                      3
                     A                      A                      A
 Frequencies --   497.2844               617.8463               708.4745
 Red. masses --     1.6549                 6.9460                 2.7487
 Frc consts  --     0.2411                 1.5622                 0.8129
 IR Inten    --    46.5589                 0.9360                42.1805

                     4                      5                      6
                     A                      A                      A
 Frequencies --   840.3570               915.0741               962.5647
 Red. masses --     1.2181                 8.3438                 8.4142
 Frc consts  --     0.5068                 4.1165                 4.5933
 IR Inten    --    28.3247                38.3696                18.2911

                     7                      8                      9
                     A                      A                      A
 Frequencies --  1094.9451              1152.4332              1195.8265
 Red. masses --     1.6704                 7.3126                 3.3018
 Frc consts  --     1.1799                 5.7221                 2.7819
 IR Inten    --    21.9470                 5.9173                11.7813

                    10                     11                     12
                     A                      A                      A
 Frequencies --  1298.8401              1349.5810              1398.3565
 Red. masses --     7.4270                 2.8507                 2.8836
 Frc consts  --     7.3820                 3.0591                 3.3221
 IR Inten    --     2.5279                 1.1027                 8.2809

                    13                     14                     15
                     A                      A                      A
 Frequencies --  1507.4376              3294.8726              3644.0605
 Red. masses --     2.3954                 1.0990                 1.0832
 Frc consts  --     3.2070                 7.0297                 8.4748
 IR Inten    --     1.7249                 0.6500               105.9162

 - Thermochemistry -
 -------------------
 Temperature   298.150 Kelvin.  Pressure   1.00000 Atm.
 Atom     1 has atomic number  6 and mass  12.00000

 Molecular mass:    68.02487 amu.
 Principal axes and moments of inertia in atomic units:
                           1         2         3
     Eigenvalues --   157.95777 184.12793 342.08568
           X            0.94010  -0.34090  -0.00001
           Y            0.34090   0.94010  -0.00001
           Z            0.00001   0.00000   1.00000
 This molecule is an asymmetric top.
 Rotational symmetry number  1.
 Rotational temperatures (Kelvin)      0.54834     0.47040     0.25319
 Rotational constants (GHZ):          11.42547     9.80156     5.27570
 Zero-point vibrational energy     122485.4 (Joules/Mol)
                                   29.27470 (Kcal/Mol)
 Warning -- explicit consideration of   2 degrees of freedom as
           vibrations may cause significant error
 Vibrational temperatures:    715.48   888.94  1019.34  1209.08  1316.59
          (Kelvin)           1384.91  1575.38  1658.09  1720.53  1868.74
                             1941.74  2011.92  2168.86  4740.58  5242.98

 Zero-point correction=                           0.046652 (Hartree/Particle)
 Thermal correction to Energy=                    0.050227
 Thermal correction to Enthalpy=                  0.051171
 Thermal correction to Gibbs Free Energy=         0.019911
 Sum of electronic and zero-point Energies=           -241.522416
 Sum of electronic and thermal Energies=              -241.518841
 Sum of electronic and thermal Enthalpies=            -241.517897
 Sum of electronic and thermal Free Energies=         -241.549158

                     E (Thermal)             CV                S
                      KCal/Mol        Cal/Mol-Kelvin    Cal/Mol-Kelvin
 Total                   31.518             11.695             65.793
 Electronic               0.000              0.000              1.377
 Translational            0.889              2.981             38.570
 Rotational               0.889              2.981             23.813
 Vibrational             29.740              5.733              2.033
 Vibration     1          0.853              1.256              0.665
 Vibration     2          0.978              0.994              0.420

 Optimization completed.
    -- Stationary point found.
 Normal termination of Gaussian 09 at Sat Mar 12 02:15:34 2005.
