 Gaussian 09, Revision B.01,
 Gaussian 09:  EM64L-G09RevB.01 12-Aug-2010

 ----------------------------------------------------------------------
 #p Temperature=298.15 opt=(maxcycles=1024) SCF=(maxcycles=1024) freq U
 B3LYP/aug-cc-pVDZ
 ----------------------------------------------------------------------

 -------------------------------------------------
 2H-1,2,3-Triazole-4-N2-UB3LYP-aug-cc-pVDZ-Doublet
 -------------------------------------------------
 Symbolic Z-matrix:
 Charge =  0 Multiplicity = 2

 SCF Done:  E(UB3LYP) =  -351.051687390     A.U. after   23 cycles
 SCF Done:  E(UB3LYP) =  -351.085659744     A.U. after   20 cycles
 SCF Done:  E(UB3LYP) =  -351.091649392     A.U. after   20 cycles
 SCF Done:  E(UB3LYP) =  -351.091906049     A.U. after   22 cycles
 SCF Done:  E(UB3LYP) =  -351.091891397     A.U. after   18 cycles
 SCF Done:  E(UB3LYP) =  -351.092011983     A.U. after   17 cycles
 SCF Done:  E(UB3LYP) =  -351.092027149     A.U. after   25 cycles
 SCF Done:  E(UB3LYP) =  -351.092022127     A.U. after   25 cycles
 SCF Done:  E(UB3LYP) =  -351.092035760     A.U. after   25 cycles
 SCF Done:  E(UB3LYP) =  -351.092043845     A.U. after   17 cycles
 SCF Done:  E(UB3LYP) =  -351.115263437     A.U. after   19 cycles
 SCF Done:  E(UB3LYP) =  -351.115333718     A.U. after   14 cycles
 SCF Done:  E(UB3LYP) =  -351.115411390     A.U. after   16 cycles
 SCF Done:  E(UB3LYP) =  -351.115513000     A.U. after   15 cycles
 SCF Done:  E(UB3LYP) =  -351.115614329     A.U. after   15 cycles
 SCF Done:  E(UB3LYP) =  -351.115692832     A.U. after   14 cycles
 SCF Done:  E(UB3LYP) =  -351.115727575     A.U. after   19 cycles
 SCF Done:  E(UB3LYP) =  -351.115732866     A.U. after   19 cycles
 SCF Done:  E(UB3LYP) =  -351.115733942     A.U. after   18 cycles
 Optimization completed.
    -- Stationary point found.
 Normal termination of Gaussian 09 at Sat Mar 12 02:10:13 2005.

 ----------------------------------------------------------------------
 #P Geom=AllCheck Guess=TCheck SCRF=Check GenChk UB3LYP/Aug-CC-pVDZ Fre
 q
 ----------------------------------------------------------------------

 2H-1,2,3-Triazole-4-N2-UB3LYP-aug-cc-pVDZ-Doublet
 -------------------------------------------------
 Redundant internal coordinates taken from checkpoint file:
 /home/ubuntu/g09/Gau-2572.chk
 Charge =  0 Multiplicity = 2

                         Standard orientation:
 ---------------------------------------------------------------------
 Center     Atomic      Atomic             Coordinates (Angstroms)
 Number     Number       Type             X           Y           Z
 ---------------------------------------------------------------------
      1          7           0        1.727408    0.466614    0.000678
      2          7           0        2.583593   -0.357557   -0.000588
      3          6           0        0.327517    0.183562   -0.000051
      4          6           0       -0.705117    1.141630   -0.000008
      5          1           0       -0.649599    2.223785   -0.000226
      6          7           0       -1.503233   -0.789451    0.000058
      7          1           0       -2.188211   -1.535080    0.000247
      8          7           0       -0.207155   -1.045798    0.000188
      9          7           0       -1.871554    0.491928   -0.000289
 ---------------------------------------------------------------------

 SCF Done:  E(UB3LYP) =  -351.115733942     A.U. after    1 cycles

 The electronic state is 2-A.
 Alpha  occ. eigenvalues --  -14.47917 -14.43361 -14.41231 -14.40918 -14.40547
 Alpha  occ. eigenvalues --  -10.28672 -10.25363  -1.14953  -1.08603  -0.93584
 Alpha  occ. eigenvalues --   -0.87332  -0.75166  -0.67227  -0.59509  -0.58547
 Alpha  occ. eigenvalues --   -0.51613  -0.48750  -0.48150  -0.44794  -0.43587
 Alpha  occ. eigenvalues --   -0.36799  -0.33730  -0.32863  -0.30834  -0.22405
 Alpha virt. eigenvalues --   -0.08914  -0.03666  -0.01920   0.00197   0.02991
 Alpha virt. eigenvalues --    0.03615   0.04166   0.05008   0.05773   0.06486
 Alpha virt. eigenvalues --    0.08167   0.09161   0.09529   0.09639   0.10538

  Beta  occ. eigenvalues --  -14.47927 -14.43012 -14.40928 -14.40533 -14.39601
  Beta  occ. eigenvalues --  -10.28304 -10.25389  -1.14899  -1.06795  -0.93482
  Beta  occ. eigenvalues --   -0.86946  -0.73577  -0.67106  -0.58937  -0.57976
  Beta  occ. eigenvalues --   -0.51584  -0.48729  -0.44130  -0.44081  -0.40279
  Beta  occ. eigenvalues --   -0.36100  -0.33656  -0.32909  -0.30415
  Beta virt. eigenvalues --   -0.07955  -0.07692  -0.03516  -0.01860   0.00229
  Beta virt. eigenvalues --    0.03054   0.03933   0.04212   0.05068   0.05823
  Beta virt. eigenvalues --    0.06574   0.08198   0.09321   0.09568   0.09634

 Mulliken atomic charges:
              1
     1  N    0.095680
     2  N   -0.539359
     3  C    0.507795
     4  C    0.845688
     5  H   -0.457685
     6  N    0.302833
     7  H   -0.067034
     8  N   -0.327606
     9  N   -0.360313
 Sum of Mulliken atomic charges =   0.00000

 Dipole moment (field-independent basis, Debye):
    X=             -2.8429    Y=              0.0766    Z=              0.0003  Tot=              2.8439
 Quadrupole moment (field-independent basis, Debye-Ang):
   XX=            -45.0161   YY=            -36.5937   ZZ=            -39.4095
   XY=              6.2996   XZ=             -0.0011   YZ=             -0.0029

  Exact polarizability:  82.563  -2.374  59.676  -0.005   0.003  35.495
 Approx polarizability: 131.639  -7.179 103.046  -0.013   0.008  53.577

                     1                      2                      3
                     A                      A                      A
 Frequencies --    99.0744               235.9667               296.0557
 Red. masses --    13.3549                 8.8189                 8.3326
 Frc consts  --     0.0772                 0.2893                 0.4303
 IR Inten    --     0.2238                 0.9741                 0.1058

                     4                      5                      6
                     A                      A                      A
 Frequencies --   489.5458               592.1860               680.4938
 Red. masses --     8.5967                 1.8761                12.2487
 Frc consts  --     1.2139                 0.3876                 3.3419
 IR Inten    --     2.5765                35.7855                28.0034

                     7                      8                      9
                     A                      A                      A
 Frequencies --   686.8158               720.0642               877.7371
 Red. masses --     4.4108                 2.3553                 1.3435
 Frc consts  --     1.2259                 0.7195                 0.6098
 IR Inten    --     2.1551                47.2860                27.1659

                    10                     11                     12
                     A                      A                      A
 Frequencies --   981.6312              1023.1283              1133.8683
 Red. masses --     5.3481                 5.7052                 2.1247
 Frc consts  --     3.0363                 3.5187                 1.6095
 IR Inten    --    18.3902                27.4494                 9.2603

                    13                     14                     15
                     A                      A                      A
 Frequencies --  1206.5043              1247.0845              1331.2342
 Red. masses --     2.8494                 3.7254                10.6098
 Frc consts  --     2.4438                 3.4137                11.0782
 IR Inten    --     6.1639                13.3702                 4.5563

                    16                     17                     18
                     A                      A                      A
 Frequencies --  1394.9883              1460.0691              1531.1565
 Red. masses --     3.3072                 4.1645                 2.4324
 Frc consts  --     3.7919                 5.2307                 3.3599
 IR Inten    --    15.5651                 4.7957                 0.0222

                    19                     20                     21
                     A                      A                      A
 Frequencies --  1829.9531              3282.1300              3630.7587
 Red. masses --    13.9097                 1.1002                 1.0835
 Frc consts  --    27.4441                 6.9829                 8.4155
 IR Inten    --    18.4163                 1.3939               131.0980

 - Thermochemistry -
 -------------------
 Temperature   298.150 Kelvin.  Pressure   1.00000 Atm.
 Atom     1 has atomic number  7 and mass  14.00307

 Molecular mass:    96.03102 amu.
 Principal axes and moments of inertia in atomic units:
                           1         2         3
     Eigenvalues --   198.72169 817.734301016.45589
           X            0.99994   0.01084   0.00000
           Y           -0.01084   0.99994  -0.00002
           Z            0.00000   0.00002   1.00000
 This molecule is an asymmetric top.
 Rotational symmetry number  1.
 Rotational temperatures (Kelvin)      0.43585     0.10592     0.08521
 Rotational constants (GHZ):           9.08175     2.20700     1.77552
 Zero-point vibrational energy     147920.9 (Joules/Mol)
                                   35.35395 (Kcal/Mol)
 Warning -- explicit consideration of   5 degrees of freedom as
           vibrations may cause significant error
 Vibrational temperatures:    142.55   339.50   425.96   704.35   852.02
          (Kelvin)            979.08   988.17  1036.01  1262.87  1412.35
                             1472.05  1631.38  1735.89  1794.27  1915.35
                             2007.07  2100.71  2202.99  2632.89  4722.25
                             5223.85

 Zero-point correction=                           0.056340 (Hartree/Particle)
 Thermal correction to Energy=                    0.061793
 Thermal correction to Enthalpy=                  0.062738
 Thermal correction to Gibbs Free Energy=         0.026179
 Sum of electronic and zero-point Energies=           -351.059394
 Sum of electronic and thermal Energies=              -351.053941
 Sum of electronic and thermal Enthalpies=            -351.052996
 Sum of electronic and thermal Free Energies=         -351.089555

                     E (Thermal)             CV                S
                      KCal/Mol        Cal/Mol-Kelvin    Cal/Mol-Kelvin
 Total                   38.776             18.540             76.944
 Electronic               0.000              0.000              1.377
 Translational            0.889              2.981             39.597
 Rotational               0.889              2.981             26.604
 Vibrational             36.998             12.579              9.365
 Vibration     1          0.604              1.950              3.472
 Vibration     2          0.655              1.786              1.833
 Vibration     3          0.690              1.681              1.439
 Vibration     4          0.845              1.273              0.685
 Vibration     5          0.950              1.048              0.463

 Optimization completed.
    -- Stationary point found.
 Normal termination of Gaussian 09 at Sat Mar 12 02:12:35 2005.
