 Gaussian 09, Revision B.01,
 Gaussian 09:  EM64L-G09RevB.01 12-Aug-2010

 ----------------------------------------------------------------------
 #p Temperature=298.15 opt=(maxcycles=1024) SCF=(maxcycles=1024) freq U
 B3LYP/aug-cc-pVDZ
 ----------------------------------------------------------------------

 -----------------------------------------------
 2H-1,2,3-Triazole-4+-UB3LYP-aug-cc-pVDZ-Triplet
 -----------------------------------------------
 Symbolic Z-matrix:
 Charge =  1 Multiplicity = 3

 SCF Done:  E(UB3LYP) =  -241.147491051     A.U. after   35 cycles
 SCF Done:  E(UB3LYP) =  -241.181215080     A.U. after   19 cycles
 SCF Done:  E(UB3LYP) =  -241.189208402     A.U. after   17 cycles
 SCF Done:  E(UB3LYP) =  -241.191594093     A.U. after   18 cycles
 SCF Done:  E(UB3LYP) =  -241.191575070     A.U. after   18 cycles
 SCF Done:  E(UB3LYP) =  -241.191816740     A.U. after   15 cycles
 SCF Done:  E(UB3LYP) =  -241.192109581     A.U. after   15 cycles
 SCF Done:  E(UB3LYP) =  -241.192102088     A.U. after   18 cycles
 SCF Done:  E(UB3LYP) =  -241.192199753     A.U. after   15 cycles
 SCF Done:  E(UB3LYP) =  -241.192267965     A.U. after   15 cycles
 SCF Done:  E(UB3LYP) =  -241.192282872     A.U. after   18 cycles
 SCF Done:  E(UB3LYP) =  -241.192286000     A.U. after   18 cycles
 SCF Done:  E(UB3LYP) =  -241.192287352     A.U. after   18 cycles
 Optimization completed.
    -- Stationary point found.
 Normal termination of Gaussian 09 at Thu Apr 12 02:33:20 2018.

 ----------------------------------------------------------------------
 #P Geom=AllCheck Guess=TCheck SCRF=Check GenChk UB3LYP/Aug-CC-pVDZ Fre
 q
 ----------------------------------------------------------------------

 2H-1,2,3-Triazole-4+-UB3LYP-aug-cc-pVDZ-Triplet
 -----------------------------------------------
 Redundant internal coordinates taken from checkpoint file:
 /home/ubuntu/g09/Gau-26597.chk
 Charge =  1 Multiplicity = 3

                         Standard orientation:
 ---------------------------------------------------------------------
 Center     Atomic      Atomic             Coordinates (Angstroms)
 Number     Number       Type             X           Y           Z
 ---------------------------------------------------------------------
      1          6           0        0.047597    1.208429   -0.000036
      2          6           0        1.183770    0.242864    0.000150
      3          1           0        2.254170    0.438204    0.000234
      4          7           0       -0.719004   -0.691343    0.000121
      5          1           0       -1.385678   -1.475588    0.000445
      6          7           0       -1.115610    0.542771   -0.000088
      7          7           0        0.655087   -0.947195   -0.000228
 ---------------------------------------------------------------------

 SCF Done:  E(UB3LYP) =  -241.192287352     A.U. after    1 cycles

 The electronic state is 3-A.
 Alpha  occ. eigenvalues --  -14.77085 -14.67562 -14.65607 -10.57727 -10.53235
 Alpha  occ. eigenvalues --   -1.41464  -1.20104  -1.12777  -0.91993  -0.91103
 Alpha  occ. eigenvalues --   -0.83726  -0.78023  -0.73290  -0.64730  -0.59425
 Alpha  occ. eigenvalues --   -0.58856  -0.58785  -0.56772
 Alpha virt. eigenvalues --   -0.30694  -0.25762  -0.18543  -0.14980  -0.13611
 Alpha virt. eigenvalues --   -0.11753  -0.11180  -0.10229  -0.09181  -0.07315
 Alpha virt. eigenvalues --   -0.06011  -0.05889  -0.05158  -0.03791  -0.02647

  Beta  occ. eigenvalues --  -14.75898 -14.67616 -14.65658 -10.55224 -10.52801
  Beta  occ. eigenvalues --   -1.39798  -1.19690  -1.09534  -0.90778  -0.87963
  Beta  occ. eigenvalues --   -0.82241  -0.73940  -0.72629  -0.62228  -0.58563
  Beta  occ. eigenvalues --   -0.57778
  Beta virt. eigenvalues --   -0.46146  -0.38959  -0.27572  -0.20862  -0.18065
  Beta virt. eigenvalues --   -0.14396  -0.13330  -0.10888  -0.10795  -0.09529
  Beta virt. eigenvalues --   -0.08490  -0.06603  -0.05678  -0.05005  -0.04694

 Mulliken atomic charges:
              1
     1  C    0.229354
     2  C    0.820128
     3  H   -0.165513
     4  N    0.243420
     5  H    0.063286
     6  N   -0.072651
     7  N   -0.118023
 Sum of Mulliken atomic charges =   1.00000

 Dipole moment (field-independent basis, Debye):
    X=              0.3692    Y=             -0.0133    Z=              0.0011  Tot=              0.3694
 Quadrupole moment (field-independent basis, Debye-Ang):
   XX=            -17.6420   YY=            -20.7516   ZZ=            -25.6460
   XY=              6.8647   XZ=             -0.0003   YZ=             -0.0016

  Exact polarizability:  42.724   0.878  41.108   0.001   0.000  22.463
 Approx polarizability:  70.894   1.440  78.054   0.001   0.002  33.856

                     1                      2                      3
                     A                      A                      A
 Frequencies --   539.7059               569.0531               600.8415
 Red. masses --     3.4219                11.1554                 3.7396
 Frc consts  --     0.5873                 2.1283                 0.7954
 IR Inten    --    42.9644                55.7515                 2.9463

                     4                      5                      6
                     A                      A                      A
 Frequencies --   808.0759               858.2179               886.2509
 Red. masses --     1.4948                 7.4315                 1.4193
 Frc consts  --     0.5751                 3.2249                 0.6568
 IR Inten    --    49.5909                 7.9873                16.4168

                     7                      8                      9
                     A                      A                      A
 Frequencies --   921.6091              1018.0708              1111.5411
 Red. masses --     5.8229                 3.9890                 7.6024
 Frc consts  --     2.9140                 2.4360                 5.5342
 IR Inten    --    71.7021                 4.2179                34.3505

                    10                     11                     12
                     A                      A                      A
 Frequencies --  1225.6446              1278.9803              1402.2848
 Red. masses --     1.5487                 2.8845                 2.1172
 Frc consts  --     1.3707                 2.7800                 2.4530
 IR Inten    --    25.6190                26.7638                21.7192

                    13                     14                     15
                     A                      A                      A
 Frequencies --  1533.1369              3262.7059              3451.8380
 Red. masses --     3.4287                 1.1033                 1.0873
 Frc consts  --     4.7484                 6.9201                 7.6333
 IR Inten    --    13.0645                57.2674               240.3451

 - Thermochemistry -
 -------------------
 Temperature   298.150 Kelvin.  Pressure   1.00000 Atm.
 Atom     1 has atomic number  6 and mass  12.00000

 Molecular mass:    68.02487 amu.
 Principal axes and moments of inertia in atomic units:
                           1         2         3
     Eigenvalues --   154.25136 197.67627 351.92763
           X            0.96695   0.25496   0.00000
           Y           -0.25496   0.96695  -0.00001
           Z            0.00000   0.00001   1.00000
 This molecule is an asymmetric top.
 Rotational symmetry number  1.
 Rotational temperatures (Kelvin)      0.56151     0.43816     0.24611
 Rotational constants (GHZ):          11.70000     9.12978     5.12816
 Zero-point vibrational energy     116444.2 (Joules/Mol)
                                   27.83084 (Kcal/Mol)
 Warning -- explicit consideration of   3 degrees of freedom as
           vibrations may cause significant error
 Vibrational temperatures:    776.52   818.74   864.48  1162.64  1234.78
          (Kelvin)           1275.12  1325.99  1464.77  1599.26  1763.43
                             1840.17  2017.57  2205.84  4694.30  4966.42

 Zero-point correction=                           0.044351 (Hartree/Particle)
 Thermal correction to Energy=                    0.048061
 Thermal correction to Enthalpy=                  0.049005
 Thermal correction to Gibbs Free Energy=         0.017150
 Sum of electronic and zero-point Energies=           -241.147936
 Sum of electronic and thermal Energies=              -241.144227
 Sum of electronic and thermal Enthalpies=            -241.143283
 Sum of electronic and thermal Free Energies=         -241.175137

                     E (Thermal)             CV                S
                      KCal/Mol        Cal/Mol-Kelvin    Cal/Mol-Kelvin
 Total                   30.158             12.587             67.044
 Electronic               0.000              0.000              2.183
 Translational            0.889              2.981             38.570
 Rotational               0.889              2.981             23.888
 Vibrational             28.381              6.625              2.403
 Vibration     1          0.895              1.162              0.566
 Vibration     2          0.925              1.098              0.506
 Vibration     3          0.959              1.030              0.448

 Optimization completed.
    -- Stationary point found.
 Normal termination of Gaussian 09 at Thu Apr 12 02:34:15 2018.
