 Gaussian 09, Revision B.01,
 Gaussian 09:  EM64L-G09RevB.01 12-Aug-2010

 ----------------------------------------------------------------------
 #p Temperature=298.15 opt=(maxcycles=1024) SCF=(maxcycles=1024) freq U
 B3LYP/aug-cc-pVDZ
 ----------------------------------------------------------------------

 --------------------------------------------------
 2H-1,2,3-Triazole-4-N2+-UB3LYP-aug-cc-pVDZ-Triplet
 --------------------------------------------------
 Symbolic Z-matrix:
 Charge =  1 Multiplicity = 3

 SCF Done:  E(UB3LYP) =  -350.683178186     A.U. after   26 cycles
 SCF Done:  E(UB3LYP) =  -350.705012157     A.U. after   23 cycles
 SCF Done:  E(UB3LYP) =  -350.710502483     A.U. after   22 cycles
 SCF Done:  E(UB3LYP) =  -350.711037377     A.U. after   24 cycles
 SCF Done:  E(UB3LYP) =  -350.711307105     A.U. after   24 cycles
 SCF Done:  E(UB3LYP) =  -350.712091550     A.U. after   20 cycles
 SCF Done:  E(UB3LYP) =  -350.711714529     A.U. after   21 cycles
 SCF Done:  E(UB3LYP) =  -350.713288503     A.U. after   20 cycles
 SCF Done:  E(UB3LYP) =  -350.713972944     A.U. after   19 cycles
 SCF Done:  E(UB3LYP) =  -350.714749751     A.U. after   19 cycles
 SCF Done:  E(UB3LYP) =  -350.715908909     A.U. after   18 cycles
 SCF Done:  E(UB3LYP) =  -350.716049624     A.U. after   17 cycles
 SCF Done:  E(UB3LYP) =  -350.716230442     A.U. after   18 cycles
 SCF Done:  E(UB3LYP) =  -350.716306930     A.U. after   17 cycles
 SCF Done:  E(UB3LYP) =  -350.716074003     A.U. after   17 cycles
 SCF Done:  E(UB3LYP) =  -350.716343008     A.U. after   17 cycles
 SCF Done:  E(UB3LYP) =  -350.716366684     A.U. after   15 cycles
 SCF Done:  E(UB3LYP) =  -350.716378988     A.U. after   16 cycles
 SCF Done:  E(UB3LYP) =  -350.716382550     A.U. after   14 cycles
 Optimization completed.
    -- Stationary point found.
 Normal termination of Gaussian 09 at Thu Apr 12 02:22:56 2018.

 ----------------------------------------------------------------------
 #P Geom=AllCheck Guess=TCheck SCRF=Check GenChk UB3LYP/Aug-CC-pVDZ Fre
 q
 ----------------------------------------------------------------------

 2H-1,2,3-Triazole-4-N2+-UB3LYP-aug-cc-pVDZ-Triplet
 --------------------------------------------------
 Redundant internal coordinates taken from checkpoint file:
 /home/ubuntu/g09/Gau-23092.chk
 Charge =  1 Multiplicity = 3

                         Standard orientation:
 ---------------------------------------------------------------------
 Center     Atomic      Atomic             Coordinates (Angstroms)
 Number     Number       Type             X           Y           Z
 ---------------------------------------------------------------------
      1          7           0        1.673462   -0.017193    0.027884
      2          7           0        2.810515   -0.088942    0.024298
      3          6           0        0.350000    0.051089   -0.004831
      4          6           0       -0.500951    1.157570   -0.019096
      5          1           0       -0.297315    2.224921   -0.036347
      6          7           0       -1.728343   -0.642212    0.199765
      7          1           0       -2.509329   -1.189276   -0.171904
      8          7           0       -0.463305   -1.115617   -0.150136
      9          7           0       -1.761994    0.680022   -0.051552
 ---------------------------------------------------------------------

 SCF Done:  E(UB3LYP) =  -350.716382550     A.U. after    1 cycles

 The electronic state is 3-A.
 Alpha  occ. eigenvalues --  -14.71628 -14.68725 -14.67277 -14.66497 -14.65912
 Alpha  occ. eigenvalues --  -10.54366 -10.50065  -1.37095  -1.35257  -1.16234
 Alpha  occ. eigenvalues --   -1.12494  -1.02773  -0.89209  -0.83512  -0.78350
 Alpha  occ. eigenvalues --   -0.75441  -0.72337  -0.70908  -0.70196  -0.69594
 Alpha  occ. eigenvalues --   -0.61071  -0.58039  -0.56661  -0.55540  -0.41576
 Alpha virt. eigenvalues --   -0.30565  -0.30072  -0.18495  -0.16080  -0.14308
 Alpha virt. eigenvalues --   -0.12173  -0.11378  -0.10738  -0.10025  -0.08903
 Alpha virt. eigenvalues --   -0.07175  -0.05780  -0.05410  -0.04487  -0.03580

  Beta  occ. eigenvalues --  -14.71618 -14.67846 -14.66853 -14.65511 -14.63999
  Beta  occ. eigenvalues --  -10.54168 -10.50060  -1.36061  -1.33376  -1.13668
  Beta  occ. eigenvalues --   -1.10671  -1.01166  -0.88367  -0.82244  -0.77286
  Beta  occ. eigenvalues --   -0.72657  -0.71065  -0.69573  -0.68209  -0.66910
  Beta  occ. eigenvalues --   -0.57542  -0.54955  -0.52908
  Beta virt. eigenvalues --   -0.42938  -0.30238  -0.29587  -0.25946  -0.16134
  Beta virt. eigenvalues --   -0.15655  -0.13973  -0.12015  -0.10812  -0.10459
  Beta virt. eigenvalues --   -0.09213  -0.08756  -0.06545  -0.05432  -0.05193

 Mulliken atomic charges:
              1
     1  N    0.490978
     2  N   -0.396228
     3  C    0.662067
     4  C    0.845494
     5  H   -0.402087
     6  N    0.141295
     7  H    0.067670
     8  N   -0.227362
     9  N   -0.181828
 Sum of Mulliken atomic charges =   1.00000

 Dipole moment (field-independent basis, Debye):
    X=             -0.8648    Y=              0.9533    Z=             -0.0054  Tot=              1.2871
 Quadrupole moment (field-independent basis, Debye-Ang):
   XX=            -22.6219   YY=            -29.3080   ZZ=            -37.0395
   XY=              4.1105   XZ=              0.6593   YZ=              0.1215

  Exact polarizability: 112.982  -0.969  55.693  -0.206   0.008  30.755
 Approx polarizability: 234.087  -5.030  98.980  -1.637  -0.092  46.446

                     1                      2                      3
                     A                      A                      A
 Frequencies --   166.5582               179.4826               264.1552
 Red. masses --     8.3958                 9.0945                12.1749
 Frc consts  --     0.1372                 0.1726                 0.5005
 IR Inten    --     0.6674                 1.7615                 2.9286

                     4                      5                      6
                     A                      A                      A
 Frequencies --   457.3066               489.4856               528.1295
 Red. masses --     8.8221                 6.7154                 9.0942
 Frc consts  --     1.0870                 0.9480                 1.4945
 IR Inten    --    26.9540                53.7570                24.6744

                     7                      8                      9
                     A                      A                      A
 Frequencies --   582.9580               649.8919               753.1472
 Red. masses --     7.7023                 1.7160                 5.3368
 Frc consts  --     1.5422                 0.4270                 1.7836
 IR Inten    --     1.7165               136.5551                25.0354

                    10                     11                     12
                     A                      A                      A
 Frequencies --   836.2695               884.7026               891.4240
 Red. masses --     5.4543                 1.4508                 3.9066
 Frc consts  --     2.2474                 0.6690                 1.8290
 IR Inten    --   277.8314                19.3950                42.3600

                    13                     14                     15
                     A                      A                      A
 Frequencies --  1103.2201              1226.3501              1255.5585
 Red. masses --     2.7413                 3.4754                 4.0276
 Frc consts  --     1.9658                 3.0795                 3.7408
 IR Inten    --    21.6868                36.3569                71.8774

                    16                     17                     18
                     A                      A                      A
 Frequencies --  1308.3568              1418.0986              1484.9570
 Red. masses --     2.2054                 1.3684                 6.8076
 Frc consts  --     2.2242                 1.6214                 8.8444
 IR Inten    --     2.6328                50.4808                16.1676

                    19                     20                     21
                     A                      A                      A
 Frequencies --  2115.6615              3263.8321              3495.0192
 Red. masses --    13.8385                 1.1023                 1.0819
 Frc consts  --    36.4949                 6.9186                 7.7865
 IR Inten    --   334.6517                42.9562               254.8062

 - Thermochemistry -
 -------------------
 Temperature   298.150 Kelvin.  Pressure   1.00000 Atm.
 Atom     1 has atomic number  7 and mass  14.00307

 Molecular mass:    96.03102 amu.
 Principal axes and moments of inertia in atomic units:
                           1         2         3
     Eigenvalues --   190.14979 892.633541075.89091
           X            0.99993   0.01156   0.00182
           Y           -0.01156   0.99993   0.00243
           Z           -0.00179  -0.00245   1.00000
 This molecule is an asymmetric top.
 Rotational symmetry number  1.
 Rotational temperatures (Kelvin)      0.45550     0.09703     0.08050
 Rotational constants (GHZ):           9.49116     2.02182     1.67744
 Zero-point vibrational energy     139691.3 (Joules/Mol)
                                   33.38703 (Kcal/Mol)
 Warning -- explicit consideration of   7 degrees of freedom as
           vibrations may cause significant error
 Vibrational temperatures:    239.64   258.24   380.06   657.96   704.26
          (Kelvin)            759.86   838.75   935.05  1083.61  1203.20
                             1272.89  1282.56  1587.29  1764.44  1806.47
                             1882.43  2040.33  2136.52  3043.96  4695.92
                             5028.55

 Zero-point correction=                           0.053206 (Hartree/Particle)
 Thermal correction to Energy=                    0.059063
 Thermal correction to Enthalpy=                  0.060007
 Thermal correction to Gibbs Free Energy=         0.022596
 Sum of electronic and zero-point Energies=           -350.663177
 Sum of electronic and thermal Energies=              -350.657320
 Sum of electronic and thermal Enthalpies=            -350.656376
 Sum of electronic and thermal Free Energies=         -350.693787

                     E (Thermal)             CV                S
                      KCal/Mol        Cal/Mol-Kelvin    Cal/Mol-Kelvin
 Total                   37.062             20.577             78.738
 Electronic               0.000              0.000              2.183
 Translational            0.889              2.981             39.597
 Rotational               0.889              2.981             26.704
 Vibrational             35.285             14.616             10.253
 Vibration     1          0.624              1.884              2.474
 Vibration     2          0.629              1.868              2.334
 Vibration     3          0.671              1.739              1.634
 Vibration     4          0.815              1.345              0.774
 Vibration     5          0.845              1.273              0.685
 Vibration     6          0.883              1.188              0.591
 Vibration     7          0.940              1.068              0.480

 Optimization completed.
    -- Stationary point found.
 Normal termination of Gaussian 09 at Thu Apr 12 02:25:19 2018.
