 Gaussian 09, Revision B.01,
 Gaussian 09:  EM64L-G09RevB.01 12-Aug-2010

 -------------------------------------------------
 #p Temperature=298.15 opt freq UB3LYP/aug-cc-pVDZ
 -------------------------------------------------

 --------------------------------------
 4-CH3O-Ph-N2-UB3LYP-aug-cc-pVDZ-Duplet
 --------------------------------------
 Symbolic Z-matrix:
 Charge =  0 Multiplicity = 2

 SCF Done:  E(UB3LYP) =  -455.287022836     A.U. after   22 cycles
 SCF Done:  E(UB3LYP) =  -455.451217539     A.U. after   19 cycles
 SCF Done:  E(UB3LYP) =  -455.596169460     A.U. after   22 cycles
 SCF Done:  E(UB3LYP) =  -455.645619615     A.U. after   22 cycles
 SCF Done:  E(UB3LYP) =  -455.657658720     A.U. after   23 cycles
 SCF Done:  E(UB3LYP) =  -455.661893798     A.U. after   22 cycles
 SCF Done:  E(UB3LYP) =  -455.662874074     A.U. after   22 cycles
 SCF Done:  E(UB3LYP) =  -455.663091890     A.U. after   15 cycles
 SCF Done:  E(UB3LYP) =  -455.663139201     A.U. after   14 cycles
 SCF Done:  E(UB3LYP) =  -455.663183085     A.U. after   14 cycles
 SCF Done:  E(UB3LYP) =  -455.667096742     A.U. after   22 cycles
 SCF Done:  E(UB3LYP) =  -455.667798905     A.U. after   18 cycles
 SCF Done:  E(UB3LYP) =  -455.668198593     A.U. after   22 cycles
 SCF Done:  E(UB3LYP) =  -455.668263918     A.U. after   23 cycles
 SCF Done:  E(UB3LYP) =  -455.669145482     A.U. after   16 cycles
 SCF Done:  E(UB3LYP) =  -455.669607205     A.U. after   16 cycles
 SCF Done:  E(UB3LYP) =  -455.669659822     A.U. after   22 cycles
 SCF Done:  E(UB3LYP) =  -455.669663073     A.U. after   13 cycles
 SCF Done:  E(UB3LYP) =  -455.669663822     A.U. after   12 cycles
 Optimization completed.
    -- Stationary point found.
 Normal termination of Gaussian 09 at Tue Mar 20 02:18:15 2018.

 ----------------------------------------------------------------------
 #P Geom=AllCheck Guess=TCheck SCRF=Check GenChk UB3LYP/Aug-CC-pVDZ Fre
 q
 ----------------------------------------------------------------------

 4-CH3O-Ph-N2-UB3LYP-aug-cc-pVDZ-Duplet
 --------------------------------------
 Redundant internal coordinates taken from checkpoint file:
 4-CH3O-Ph-N2-UB3LYP-aug-cc-pVDZ-Duplet.chk
 Charge =  0 Multiplicity = 2

                         Standard orientation:
 ---------------------------------------------------------------------
 Center     Atomic      Atomic             Coordinates (Angstroms)
 Number     Number       Type             X           Y           Z
 ---------------------------------------------------------------------
      1          6           0        0.318400    1.355027   -0.000247
      2          6           0       -1.046239    1.111344   -0.000269
      3          6           0       -1.512275   -0.214081   -0.000217
      4          6           0       -0.614668   -1.278969   -0.000287
      5          6           0        0.763407   -1.040326   -0.000093
      6          6           0        1.232564    0.281672    0.000021
      7          1           0        0.708835    2.372068   -0.000693
      8          1           0       -1.760107    1.934309   -0.000497
      9          1           0       -1.000824   -2.297884   -0.000323
     10          1           0        1.449148   -1.883447   -0.000009
     11          7           0       -2.924815   -0.544158   -0.000266
     12          7           0       -3.814056    0.240041    0.000847
     13          8           0        2.546984    0.633691    0.000222
     14          6           0        3.528215   -0.401031    0.000243
     15          1           0        4.495690    0.109420    0.000254
     16          1           0        3.443585   -1.028539   -0.899789
     17          1           0        3.443470   -1.028453    0.900308
 ---------------------------------------------------------------------

 SCF Done:  E(UB3LYP) =  -455.669663822     A.U. after    2 cycles

 The electronic state is 2-A.
 Alpha  occ. eigenvalues --  -19.20164 -14.41161 -14.38793 -10.27410 -10.25865
 Alpha  occ. eigenvalues --  -10.24250 -10.21699 -10.21563 -10.21166 -10.20931
 Alpha  occ. eigenvalues --   -1.09295  -1.06445  -0.88317  -0.79739  -0.77600
 Alpha  occ. eigenvalues --   -0.73531  -0.66104  -0.63980  -0.58560  -0.55358
 Alpha  occ. eigenvalues --   -0.51490  -0.48996  -0.47623  -0.47124  -0.45079
 Alpha  occ. eigenvalues --   -0.44198  -0.44155  -0.41877  -0.40733  -0.39591
 Alpha  occ. eigenvalues --   -0.37900  -0.35216  -0.34113  -0.28072  -0.24793
 Alpha  occ. eigenvalues --   -0.20076
 Alpha virt. eigenvalues --   -0.06917  -0.03677  -0.01826   0.00163   0.00324
 Alpha virt. eigenvalues --    0.01123   0.01900   0.01971   0.02602   0.02997
 Alpha virt. eigenvalues --    0.04938   0.06146   0.06197   0.06898   0.06940

  Beta  occ. eigenvalues --  -19.20175 -14.40785 -14.37258 -10.27429 -10.25865
  Beta  occ. eigenvalues --  -10.23883 -10.21731 -10.21560 -10.21155 -10.20920
  Beta  occ. eigenvalues --   -1.09318  -1.04659  -0.88067  -0.79191  -0.77496
  Beta  occ. eigenvalues --   -0.73107  -0.65180  -0.63865  -0.58031  -0.55246
  Beta  occ. eigenvalues --   -0.51068  -0.49026  -0.47063  -0.45323  -0.44784
  Beta  occ. eigenvalues --   -0.43877  -0.43542  -0.40388  -0.39465  -0.39204
  Beta  occ. eigenvalues --   -0.36090  -0.34852  -0.33938  -0.28113  -0.24506
  Beta virt. eigenvalues --   -0.06236  -0.06043  -0.03731  -0.01798   0.00168
  Beta virt. eigenvalues --    0.00425   0.01337   0.02000   0.02169   0.02673
  Beta virt. eigenvalues --    0.03029   0.04991   0.06158   0.06196   0.06893

 Mulliken atomic charges:
              1
     1  C    0.889411
     2  C    1.298424
     3  C    0.063785
     4  C    0.750316
     5  C    1.104430
     6  C    0.507054
     7  H   -0.868944
     8  H   -0.881823
     9  H   -0.798756
    10  H   -1.187118
    11  N    0.108924
    12  N   -0.615436
    13  O   -0.650677
    14  C    1.211944
    15  H   -0.551849
    16  H   -0.189802
    17  H   -0.189882
 Sum of Mulliken atomic charges =   0.00000

 Dipole moment (field-independent basis, Debye):
    X=              4.6970    Y=             -0.9620    Z=             -0.0011  Tot=              4.7945
 Quadrupole moment (field-independent basis, Debye-Ang):
   XX=            -65.5491   YY=            -54.4025   ZZ=            -60.3960
   XY=             -3.9138   XZ=              0.0037   YZ=             -0.0036

  Exact polarizability: 163.111  -4.894 101.732  -0.005   0.003  62.103
 Approx polarizability: 243.213  -8.538 174.641  -0.014   0.012  96.024

                     1                      2                      3
                     A                      A                      A
 Frequencies --    69.4838               117.2959               175.4736
 Red. masses --     4.6934                 4.7532                 4.1461
 Frc consts  --     0.0134                 0.0385                 0.0752
 IR Inten    --     0.0023                 4.3905                 1.2117

                     4                      5                      6
                     A                      A                      A
 Frequencies --   194.1266               247.5917               267.6944
 Red. masses --     5.6885                 1.2266                 4.0690
 Frc consts  --     0.1263                 0.0443                 0.1718
 IR Inten    --     0.4934                 0.2925                 5.7122

                     7                      8                      9
                     A                      A                      A
 Frequencies --   356.7601               399.0330               436.0937
 Red. masses --     5.8809                 6.8881                 3.0508
 Frc consts  --     0.4410                 0.6462                 0.3418
 IR Inten    --     0.3401                 3.0286                 0.0266

                    10                     11                     12
                     A                      A                      A
 Frequencies --   482.5580               519.7076               579.4708
 Red. masses --     5.0776                 2.4532                 5.9377
 Frc consts  --     0.6966                 0.3904                 1.1747
 IR Inten    --     0.5239                13.1928                33.2126

                    13                     14                     15
                     A                      A                      A
 Frequencies --   644.8476               703.2790               730.9636
 Red. masses --     7.0380                 6.3734                 3.2214
 Frc consts  --     1.7243                 1.8573                 1.0141
 IR Inten    --     7.9905                 4.8623                 0.5122

                    16                     17                     18
                     A                      A                      A
 Frequencies --   816.3800               825.3099               850.4581
 Red. masses --     1.2708                 5.9313                 1.6884
 Frc consts  --     0.4990                 2.3803                 0.7195
 IR Inten    --     6.8291                14.9914                57.2593

                    19                     20                     21
                     A                      A                      A
 Frequencies --   962.1594               989.2945              1013.6518
 Red. masses --     1.3752                 1.3597                 2.8516
 Frc consts  --     0.7501                 0.7840                 1.7263
 IR Inten    --     1.0159                 0.0042                 0.1071

                    22                     23                     24
                     A                      A                      A
 Frequencies --  1055.3157              1110.2560              1121.5211
 Red. masses --     6.8696                 2.9799                 1.2434
 Frc consts  --     4.5076                 2.1642                 0.9215
 IR Inten    --    56.2715                51.9490                 9.3530

                    25                     26                     27
                     A                      A                      A
 Frequencies --  1156.4114              1183.3955              1193.4283
 Red. masses --     1.2756                 1.2485                 1.3933
 Frc consts  --     1.0050                 1.0301                 1.1692
 IR Inten    --     0.9326                16.1402                 7.0336

                    28                     29                     30
                     A                      A                      A
 Frequencies --  1276.6349              1311.5286              1365.7995
 Red. masses --     4.1998                 1.3011                 9.0432
 Frc consts  --     4.0329                 1.3186                 9.9391
 IR Inten    --   299.7263                 2.3624                19.7858

                    31                     32                     33
                     A                      A                      A
 Frequencies --  1447.0625              1449.0136              1472.2089
 Red. masses --     2.3748                 1.3619                 1.0455
 Frc consts  --     2.9299                 1.6847                 1.3350
 IR Inten    --     3.1745                19.8801                 8.7939

                    34                     35                     36
                     A                      A                      A
 Frequencies --  1478.4722              1514.9507              1616.8717
 Red. masses --     1.0832                 2.5027                 6.5527
 Frc consts  --     1.3950                 3.3842                10.0930
 IR Inten    --    21.1985                87.5958                95.1818

                    37                     38                     39
                     A                      A                      A
 Frequencies --  1640.0650              1838.6075              3014.9468
 Red. masses --     6.6148                13.6789                 1.0344
 Frc consts  --    10.4831                27.2446                 5.5397
 IR Inten    --   100.7859                34.9411                52.1838

                    40                     41                     42
                     A                      A                      A
 Frequencies --  3084.0633              3155.5732              3194.2378
 Red. masses --     1.1064                 1.1001                 1.0882
 Frc consts  --     6.2004                 6.4544                 6.5419
 IR Inten    --    30.0567                16.8260                 1.6176

                    43                     44                     45
                     A                      A                      A
 Frequencies --  3196.9406              3207.1633              3221.8682
 Red. masses --     1.0901                 1.0961                 1.0930
 Frc consts  --     6.5642                 6.6424                 6.6850
 IR Inten    --     0.8706                 2.7927                 5.5868

 - Thermochemistry -
 -------------------
 Temperature   298.150 Kelvin.  Pressure   1.00000 Atm.
 Atom     1 has atomic number  6 and mass  12.00000

 Molecular mass:   135.05584 amu.
 Principal axes and moments of inertia in atomic units:
                           1         2         3
     Eigenvalues --   379.387582500.187232867.91266
           X            0.99989  -0.01484   0.00001
           Y            0.01484   0.99989  -0.00002
           Z            0.00000   0.00002   1.00000
 This molecule is an asymmetric top.
 Rotational symmetry number  1.
 Rotational temperatures (Kelvin)      0.22830     0.03464     0.03020
 Rotational constants (GHZ):           4.75699     0.72184     0.62929
 Zero-point vibrational energy     339069.4 (Joules/Mol)
                                   81.03952 (Kcal/Mol)
 Warning -- explicit consideration of  12 degrees of freedom as
           vibrations may cause significant error
 Vibrational temperatures:     99.97   168.76   252.47   279.30   356.23
          (Kelvin)            385.15   513.30   574.12   627.44   694.29
                              747.74   833.73   927.79  1011.86  1051.69
                             1174.59  1187.44  1223.62  1384.33  1423.37
                             1458.42  1518.36  1597.41  1613.62  1663.82
                             1702.64  1717.08  1836.79  1886.99  1965.08
                             2082.00  2084.80  2118.18  2127.19  2179.67
                             2326.31  2359.68  2645.34  4337.83  4437.27
                             4540.16  4595.79  4599.68  4614.39  4635.54

 Zero-point correction=                           0.129145 (Hartree/Particle)
 Thermal correction to Energy=                    0.138028
 Thermal correction to Enthalpy=                  0.138972
 Thermal correction to Gibbs Free Energy=         0.094479
 Sum of electronic and zero-point Energies=           -455.540519
 Sum of electronic and thermal Energies=              -455.531636
 Sum of electronic and thermal Enthalpies=            -455.530691
 Sum of electronic and thermal Free Energies=         -455.575184

                     E (Thermal)             CV                S
                      KCal/Mol        Cal/Mol-Kelvin    Cal/Mol-Kelvin
 Total                   86.614             33.058             93.643
 Electronic               0.000              0.000              1.377
 Translational            0.889              2.981             40.614
 Rotational               0.889              2.981             29.388
 Vibrational             84.837             27.096             22.264
 Vibration     1          0.598              1.969              4.168
 Vibration     2          0.608              1.935              3.144
 Vibration     3          0.627              1.873              2.376
 Vibration     4          0.635              1.848              2.188
 Vibration     5          0.661              1.767              1.748
 Vibration     6          0.673              1.732              1.611
 Vibration     7          0.732              1.561              1.136
 Vibration     8          0.765              1.472              0.966
 Vibration     9          0.797              1.392              0.839
 Vibration    10          0.839              1.289              0.703
 Vibration    11          0.875              1.206              0.611
 Vibration    12          0.936              1.076              0.486

 Optimization completed.
    -- Stationary point found.
 Normal termination of Gaussian 09 at Tue Mar 20 02:41:32 2018.
