 Gaussian 09, Revision B.01,
 Gaussian 09:  EM64L-G09RevB.01 12-Aug-2010

 -------------------------------------------------
 #p Temperature=298.15 opt freq UB3LYP/aug-cc-pVDZ
 -------------------------------------------------

 -------------------------------------
 4-CH3O-Ph+-UB3LYP-aug-cc-pVDZ-Singlet
 -------------------------------------
 Symbolic Z-matrix:
 Charge =  1 Multiplicity = 1

 SCF Done:  E(UB3LYP) =  -345.587990584     A.U. after   14 cycles
 SCF Done:  E(UB3LYP) =  -345.662704074     A.U. after   13 cycles
 SCF Done:  E(UB3LYP) =  -345.752083495     A.U. after   15 cycles
 SCF Done:  E(UB3LYP) =  -345.784830249     A.U. after   15 cycles
 SCF Done:  E(UB3LYP) =  -345.799158606     A.U. after   14 cycles
 SCF Done:  E(UB3LYP) =  -345.807745338     A.U. after   14 cycles
 SCF Done:  E(UB3LYP) =  -345.810958189     A.U. after   16 cycles
 SCF Done:  E(UB3LYP) =  -345.812210440     A.U. after   13 cycles
 SCF Done:  E(UB3LYP) =  -345.812816062     A.U. after   14 cycles
 SCF Done:  E(UB3LYP) =  -345.812807228     A.U. after   14 cycles
 SCF Done:  E(UB3LYP) =  -345.822710685     A.U. after   14 cycles
 SCF Done:  E(UB3LYP) =  -345.822771762     A.U. after   14 cycles
 SCF Done:  E(UB3LYP) =  -345.822847658     A.U. after   14 cycles
 SCF Done:  E(UB3LYP) =  -345.822891663     A.U. after   14 cycles
 SCF Done:  E(UB3LYP) =  -345.822931522     A.U. after   14 cycles
 SCF Done:  E(UB3LYP) =  -345.822935230     A.U. after   12 cycles
 SCF Done:  E(UB3LYP) =  -345.822936021     A.U. after   11 cycles
 SCF Done:  E(UB3LYP) =  -345.822936345     A.U. after   11 cycles
 SCF Done:  E(UB3LYP) =  -345.822936466     A.U. after   10 cycles
 Optimization completed.
    -- Stationary point found.
 Normal termination of Gaussian 09 at Thu Mar 15 09:56:38 2018.

 ----------------------------------------------------------------------
 #P Geom=AllCheck Guess=TCheck SCRF=Check GenChk UB3LYP/Aug-CC-pVDZ Fre
 q
 ----------------------------------------------------------------------

 4-CH3O-Ph+-UB3LYP-aug-cc-pVDZ-Singlet
 -------------------------------------
 Redundant internal coordinates taken from checkpoint file:
 4-CH3O-Ph+-UB3LYP-aug-cc-pVDZ-Singlet.chk
 Charge =  1 Multiplicity = 1

                         Standard orientation:
 ---------------------------------------------------------------------
 Center     Atomic      Atomic             Coordinates (Angstroms)
 Number     Number       Type             X           Y           Z
 ---------------------------------------------------------------------
      1          6           0        0.003788    1.105589   -0.013467
      2          6           0       -1.365870    1.480450    0.040475
      3          6           0       -2.076391    0.354787   -0.103127
      4          6           0       -2.005351   -0.976370    0.057966
      5          6           0       -0.624187   -1.278404    0.016925
      6          6           0        0.370102   -0.262054   -0.004956
      7          1           0        0.735253    1.910075   -0.067197
      8          1           0       -1.718541    2.507322    0.119352
      9          1           0       -2.795219   -1.724806    0.053522
     10          1           0       -0.332815   -2.327135   -0.065801
     11          8           0        1.623257   -0.706206   -0.025232
     12          6           0        2.719700    0.235140    0.019289
     13          1           0        3.622186   -0.378972   -0.001025
     14          1           0        2.681325    0.819380    0.947728
     15          1           0        2.691008    0.888954   -0.863347
 ---------------------------------------------------------------------

 SCF Done:  E(UB3LYP) =  -345.822936466     A.U. after    1 cycles

 The electronic state is 1-A.
 Alpha  occ. eigenvalues --  -19.36649 -10.49881 -10.46404 -10.43655 -10.43618
 Alpha  occ. eigenvalues --  -10.41830 -10.41657 -10.39574  -1.26236  -1.10454
 Alpha  occ. eigenvalues --   -0.99553  -0.95969  -0.88069  -0.83622  -0.79571
 Alpha  occ. eigenvalues --   -0.73032  -0.70544  -0.67064  -0.66788  -0.64828
 Alpha  occ. eigenvalues --   -0.64343  -0.59838  -0.59571  -0.57753  -0.52936
 Alpha  occ. eigenvalues --   -0.51497  -0.47737  -0.42998
 Alpha virt. eigenvalues --   -0.34161  -0.23682  -0.20868  -0.14153  -0.12091
 Alpha virt. eigenvalues --   -0.11915  -0.10694  -0.09508  -0.09084  -0.08555
 Alpha virt. eigenvalues --   -0.08046  -0.06962  -0.06232  -0.05357  -0.05151

  Beta  occ. eigenvalues --  -19.36649 -10.49881 -10.46404 -10.43655 -10.43618
  Beta  occ. eigenvalues --  -10.41830 -10.41657 -10.39574  -1.26236  -1.10454
  Beta  occ. eigenvalues --   -0.99553  -0.95969  -0.88069  -0.83622  -0.79571
  Beta  occ. eigenvalues --   -0.73032  -0.70544  -0.67064  -0.66788  -0.64828
  Beta  occ. eigenvalues --   -0.64343  -0.59838  -0.59571  -0.57753  -0.52936
  Beta  occ. eigenvalues --   -0.51497  -0.47737  -0.42998
  Beta virt. eigenvalues --   -0.34161  -0.23682  -0.20868  -0.14153  -0.12091
  Beta virt. eigenvalues --   -0.11915  -0.10694  -0.09508  -0.09084  -0.08555
  Beta virt. eigenvalues --   -0.08046  -0.06962  -0.06232  -0.05357  -0.05151

 Mulliken atomic charges:
              1
     1  C    1.313548
     2  C    0.598853
     3  C   -0.109668
     4  C    0.553018
     5  C    1.085441
     6  C    0.701051
     7  H   -1.042213
     8  H   -0.536119
     9  H   -0.552849
    10  H   -0.788220
    11  O   -0.576392
    12  C    1.168565
    13  H   -0.485473
    14  H   -0.161599
    15  H   -0.167944
 Sum of Mulliken atomic charges =   1.00000

 Dipole moment (field-independent basis, Debye):
    X=             -2.7644    Y=              1.4934    Z=              0.1728  Tot=              3.1468
 Quadrupole moment (field-independent basis, Debye-Ang):
   XX=            -18.6832   YY=            -30.6340   ZZ=            -47.0472
   XY=              2.9515   XZ=             -0.6402   YZ=              0.3509

  Exact polarizability: 114.966  -0.266  86.336   1.995  -0.502  48.068
 Approx polarizability: 203.286 -10.584 161.300   3.487  -1.490  73.001

                     1                      2                      3
                     A                      A                      A
 Frequencies --   117.0900               198.0682               224.6430
 Red. masses --     3.1865                 1.8139                 1.9897
 Frc consts  --     0.0257                 0.0419                 0.0592
 IR Inten    --     6.7211                21.3189                13.4471

                     4                      5                      6
                     A                      A                      A
 Frequencies --   264.0628               288.1830               336.9089
 Red. masses --     2.6213                 2.9773                 3.4280
 Frc consts  --     0.1077                 0.1457                 0.2293
 IR Inten    --    25.8633                35.0292                68.0887

                     7                      8                      9
                     A                      A                      A
 Frequencies --   408.4470               450.4534               555.2737
 Red. masses --     2.9079                 4.6040                 2.1544
 Frc consts  --     0.2858                 0.5504                 0.3914
 IR Inten    --     0.0172                 0.1846                86.3208

                    10                     11                     12
                     A                      A                      A
 Frequencies --   591.0675               601.9688               748.2261
 Red. masses --     3.1233                 1.9977                 3.3442
 Frc consts  --     0.6429                 0.4265                 1.1031
 IR Inten    --    28.6663                 1.2456                31.3230

                    13                     14                     15
                     A                      A                      A
 Frequencies --   780.4312               863.0622               900.3827
 Red. masses --     2.0340                 1.9535                 1.6609
 Frc consts  --     0.7299                 0.8573                 0.7933
 IR Inten    --    74.6619                13.0661                 7.3691

                    16                     17                     18
                     A                      A                      A
 Frequencies --   918.6663               996.7080              1054.0288
 Red. masses --     2.3310                 3.8702                 2.0608
 Frc consts  --     1.1591                 2.2653                 1.3489
 IR Inten    --     8.5562                64.8760                 0.5993

                    19                     20                     21
                     A                      A                      A
 Frequencies --  1060.8677              1123.3100              1150.7155
 Red. masses --     1.2635                 1.2029                 1.2779
 Frc consts  --     0.8378                 0.8943                 0.9970
 IR Inten    --    27.8013                10.4896                 2.2638

                    22                     23                     24
                     A                      A                      A
 Frequencies --  1189.4791              1208.2583              1267.5919
 Red. masses --     1.3818                 3.8331                 1.3557
 Frc consts  --     1.1519                 3.2970                 1.2835
 IR Inten    --     3.3355                14.2909                10.9716

                    25                     26                     27
                     A                      A                      A
 Frequencies --  1318.6229              1363.3410              1408.8527
 Red. masses --     3.9699                 3.7798                 5.9233
 Frc consts  --     4.0670                 4.1394                 6.9270
 IR Inten    --   159.5020                 3.1294                 4.9950

                    28                     29                     30
                     A                      A                      A
 Frequencies --  1443.5989              1467.7379              1476.9850
 Red. masses --     1.2368                 1.0804                 1.0463
 Frc consts  --     1.5185                 1.3713                 1.3448
 IR Inten    --    49.6017                 8.4648                14.0641

                    31                     32                     33
                     A                      A                      A
 Frequencies --  1534.3051              1722.6836              3039.6346
 Red. masses --     3.3014                 8.3860                 1.0331
 Frc consts  --     4.5790                14.6628                 5.6241
 IR Inten    --   312.8658                 6.5891                10.1896

                    34                     35                     36
                     A                      A                      A
 Frequencies --  3126.6602              3189.5796              3192.4599
 Red. masses --     1.1082                 1.0900                 1.1031
 Frc consts  --     6.3833                 6.5332                 6.6239
 IR Inten    --    10.7352                20.5198                 1.1246

                    37                     38                     39
                     A                      A                      A
 Frequencies --  3212.2396              3225.3078              3230.4723
 Red. masses --     1.0884                 1.0977                 1.0986
 Frc consts  --     6.6167                 6.7281                 6.7550
 IR Inten    --    10.9419               123.0266                52.3008

 - Thermochemistry -
 -------------------
 Temperature   298.150 Kelvin.  Pressure   1.00000 Atm.
 Atom     1 has atomic number  6 and mass  12.00000

 Molecular mass:   107.04969 amu.
 Principal axes and moments of inertia in atomic units:
                           1         2         3
     Eigenvalues --   374.127851073.931841434.56144
           X            0.99954   0.03028  -0.00050
           Y           -0.03028   0.99954   0.00236
           Z            0.00057  -0.00234   1.00000
 This molecule is an asymmetric top.
 Rotational symmetry number  1.
 Rotational temperatures (Kelvin)      0.23151     0.08065     0.06038
 Rotational constants (GHZ):           4.82386     1.68050     1.25804
 Zero-point vibrational energy     306545.3 (Joules/Mol)
                                   73.26609 (Kcal/Mol)
 Warning -- explicit consideration of  11 degrees of freedom as
           vibrations may cause significant error
 Vibrational temperatures:    168.47   284.98   323.21   379.93   414.63
          (Kelvin)            484.74   587.66   648.10   798.91   850.41
                              866.10  1076.53  1122.87  1241.75  1295.45
                             1321.75  1434.04  1516.51  1526.35  1616.19
                             1655.62  1711.39  1738.41  1823.78  1897.20
                             1961.54  2027.02  2077.01  2111.74  2125.05
                             2207.52  2478.55  4373.35  4498.56  4589.09
                             4593.23  4621.69  4640.49  4647.92

 Zero-point correction=                           0.116757 (Hartree/Particle)
 Thermal correction to Energy=                    0.124312
 Thermal correction to Enthalpy=                  0.125257
 Thermal correction to Gibbs Free Energy=         0.085347
 Sum of electronic and zero-point Energies=           -345.706180
 Sum of electronic and thermal Energies=              -345.698624
 Sum of electronic and thermal Enthalpies=            -345.697680
 Sum of electronic and thermal Free Energies=         -345.737590

                     E (Thermal)             CV                S
                      KCal/Mol        Cal/Mol-Kelvin    Cal/Mol-Kelvin
 Total                   78.007             28.360             83.998
 Electronic               0.000              0.000              0.000
 Translational            0.889              2.981             39.921
 Rotational               0.889              2.981             27.846
 Vibrational             76.230             22.399             16.231
 Vibration     1          0.608              1.935              3.148
 Vibration     2          0.637              1.843              2.151
 Vibration     3          0.649              1.804              1.921
 Vibration     4          0.671              1.739              1.635
 Vibration     5          0.685              1.696              1.485
 Vibration     6          0.718              1.602              1.227
 Vibration     7          0.773              1.452              0.932
 Vibration     8          0.809              1.360              0.794
 Vibration     9          0.911              1.128              0.533
 Vibration    10          0.948              1.051              0.465
 Vibration    11          0.960              1.028              0.446

 Normal termination of Gaussian 09 at Thu Mar 15 10:08:09 2018.
