 Gaussian 09, Revision B.01,
 Gaussian 09:  EM64L-G09RevB.01 12-Aug-2010

 -------------------------------------------------
 #p Temperature=298.15 opt freq UB3LYP/aug-cc-pVDZ
 -------------------------------------------------

 -----------------------------------
 4-CH3O-Ph-UB3LYP-aug-cc-pVDZ-Duplet
 -----------------------------------
 Symbolic Z-matrix:
 Charge =  0 Multiplicity = 2

 SCF Done:  E(UB3LYP) =  -345.923279866     A.U. after   19 cycles
 SCF Done:  E(UB3LYP) =  -346.001275251     A.U. after   17 cycles
 SCF Done:  E(UB3LYP) =  -346.084800888     A.U. after   19 cycles
 SCF Done:  E(UB3LYP) =  -346.111035965     A.U. after   18 cycles
 SCF Done:  E(UB3LYP) =  -346.117733693     A.U. after   18 cycles
 SCF Done:  E(UB3LYP) =  -346.119025828     A.U. after   16 cycles
 SCF Done:  E(UB3LYP) =  -346.119207569     A.U. after   14 cycles
 SCF Done:  E(UB3LYP) =  -346.119336351     A.U. after   15 cycles
 SCF Done:  E(UB3LYP) =  -346.110662734     A.U. after   19 cycles
 SCF Done:  E(UB3LYP) =  -346.120085080     A.U. after   18 cycles
 SCF Done:  E(UB3LYP) =  -346.122152189     A.U. after   18 cycles
 SCF Done:  E(UB3LYP) =  -346.123183298     A.U. after   14 cycles
 SCF Done:  E(UB3LYP) =  -346.123349850     A.U. after   18 cycles
 SCF Done:  E(UB3LYP) =  -346.123614483     A.U. after   18 cycles
 SCF Done:  E(UB3LYP) =  -346.123667484     A.U. after   13 cycles
 SCF Done:  E(UB3LYP) =  -346.123669060     A.U. after   11 cycles
 SCF Done:  E(UB3LYP) =  -346.123669557     A.U. after   10 cycles
 Optimization completed.
    -- Stationary point found.
 Normal termination of Gaussian 09 at Tue Mar 20 03:21:52 2018.

 ----------------------------------------------------------------------
 #P Geom=AllCheck Guess=TCheck SCRF=Check GenChk UB3LYP/Aug-CC-pVDZ Fre
 q
 ----------------------------------------------------------------------

 4-CH3O-Ph-UB3LYP-aug-cc-pVDZ-Duplet
 -----------------------------------
 Redundant internal coordinates taken from checkpoint file:
 4-CH3O-Ph-UB3LYP-aug-cc-pVDZ-Duplet.chk
 Charge =  0 Multiplicity = 2

                         Standard orientation:
 ---------------------------------------------------------------------
 Center     Atomic      Atomic             Coordinates (Angstroms)
 Number     Number       Type             X           Y           Z
 ---------------------------------------------------------------------
      1          6           0       -0.586581   -1.288125    0.000188
      2          6           0       -1.948585   -0.965056    0.000050
      3          6           0       -2.279167    0.378290    0.000026
      4          6           0       -1.371880    1.412965    0.000076
      5          6           0       -0.001927    1.079804   -0.000183
      6          6           0        0.382815   -0.269334   -0.000161
      7          1           0       -0.256228   -2.327156    0.000351
      8          1           0       -2.703280   -1.752250    0.000195
      9          1           0       -1.680273    2.458802   -0.000068
     10          1           0        0.736215    1.879085   -0.000162
     11          8           0        1.683621   -0.699066   -0.000525
     12          6           0        2.713895    0.281467    0.000339
     13          1           0        3.655662   -0.276006    0.000669
     14          1           0        2.663257    0.914530    0.899974
     15          1           0        2.664260    0.915457   -0.898766
 ---------------------------------------------------------------------

 SCF Done:  E(UB3LYP) =  -346.123669557     A.U. after    1 cycles

 The electronic state is 2-A.
 Alpha  occ. eigenvalues --  -19.18448 -10.25490 -10.24662 -10.21144 -10.20442
 Alpha  occ. eigenvalues --  -10.20413 -10.20160 -10.19841  -1.07505  -0.86687
 Alpha  occ. eigenvalues --   -0.76730  -0.75856  -0.70016  -0.62305  -0.59363
 Alpha  occ. eigenvalues --   -0.54351  -0.49116  -0.47571  -0.46452  -0.45336
 Alpha  occ. eigenvalues --   -0.44045  -0.42131  -0.38877  -0.37667  -0.34143
 Alpha  occ. eigenvalues --   -0.33320  -0.26588  -0.24953  -0.23462
 Alpha virt. eigenvalues --   -0.02589  -0.01206  -0.00537   0.00353   0.00661
 Alpha virt. eigenvalues --    0.02202   0.02369   0.02739   0.03763   0.05362
 Alpha virt. eigenvalues --    0.06795   0.06994   0.07627   0.07686   0.09281

  Beta  occ. eigenvalues --  -19.18463 -10.25544 -10.24660 -10.20456 -10.20417
  Beta  occ. eigenvalues --  -10.20033 -10.19715 -10.19604  -1.07539  -0.85899
  Beta  occ. eigenvalues --   -0.76332  -0.75229  -0.69384  -0.61980  -0.58483
  Beta  occ. eigenvalues --   -0.54141  -0.48667  -0.47619  -0.45888  -0.44189
  Beta  occ. eigenvalues --   -0.43381  -0.41783  -0.38740  -0.37306  -0.34015
  Beta  occ. eigenvalues --   -0.33009  -0.26598  -0.22829
  Beta virt. eigenvalues --   -0.09099  -0.02658  -0.01193   0.00314   0.00413
  Beta virt. eigenvalues --    0.00679   0.02221   0.02362   0.02881   0.03937
  Beta virt. eigenvalues --    0.05423   0.06799   0.07421   0.07636   0.07798

 Mulliken atomic charges:
              1
     1  C    1.005690
     2  C    0.887053
     3  C   -1.144755
     4  C    0.874535
     5  C    1.316351
     6  C    0.690019
     7  H   -0.848637
     8  H   -0.590277
     9  H   -0.609842
    10  H   -1.190279
    11  O   -0.653741
    12  C    1.193610
    13  H   -0.548258
    14  H   -0.190711
    15  H   -0.190756
 Sum of Mulliken atomic charges =   0.00000

 Dipole moment (field-independent basis, Debye):
    X=              1.6128    Y=              0.8058    Z=              0.0011  Tot=              1.8029
 Quadrupole moment (field-independent basis, Debye-Ang):
   XX=            -44.7703   YY=            -43.7122   ZZ=            -50.7747
   XY=              3.8728   XZ=              0.0025   YZ=             -0.0019

  Exact polarizability: 112.607   2.029  94.645  -0.001  -0.004  56.996
 Approx polarizability: 165.997   0.600 161.002  -0.005  -0.003  85.556

                     1                      2                      3
                     A                      A                      A
 Frequencies --    95.4620               219.5594               262.0938
 Red. masses --     3.2720                 1.8813                 3.1282
 Frc consts  --     0.0176                 0.0534                 0.1266
 IR Inten    --     3.1981                 1.0878                 2.0979

                     4                      5                      6
                     A                      A                      A
 Frequencies --   285.8468               413.6565               445.9255
 Red. masses --     1.7157                 2.8752                 4.8358
 Frc consts  --     0.0826                 0.2899                 0.5666
 IR Inten    --     1.6747                 0.0000                 1.0048

                     7                      8                      9
                     A                      A                      A
 Frequencies --   482.5166               559.1879               606.2813
 Red. masses --     2.9109                 5.2456                 7.0979
 Frc consts  --     0.3993                 0.9664                 1.5372
 IR Inten    --    19.1009                 3.1828                 0.1955

                    10                     11                     12
                     A                      A                      A
 Frequencies --   678.2286               778.6791               782.8770
 Red. masses --     2.7603                 5.1664                 1.2934
 Frc consts  --     0.7481                 1.8457                 0.4671
 IR Inten    --     3.1450                21.2942                11.2335

                    13                     14                     15
                     A                      A                      A
 Frequencies --   805.8780               917.3145               948.5358
 Red. masses --     1.5854                 1.4011                 1.3695
 Frc consts  --     0.6066                 0.6946                 0.7260
 IR Inten    --    52.6741                 0.3632                 0.3146

                    16                     17                     18
                     A                      A                      A
 Frequencies --   983.1056              1044.0058              1059.8631
 Red. masses --     6.2151                 2.2521                 5.6136
 Frc consts  --     3.5391                 1.4462                 3.7153
 IR Inten    --     0.4368                 3.9295                50.6615

                    19                     20                     21
                     A                      A                      A
 Frequencies --  1103.5823              1158.1410              1165.7320
 Red. masses --     1.3134                 1.2756                 1.1434
 Frc consts  --     0.9424                 1.0081                 0.9155
 IR Inten    --    10.5298                 0.9734                 8.6674

                    22                     23                     24
                     A                      A                      A
 Frequencies --  1192.9585              1260.9853              1289.4581
 Red. masses --     1.4261                 4.2261                 1.3158
 Frc consts  --     1.1958                 3.9592                 1.2890
 IR Inten    --    11.6351               210.6284                 9.3257

                    25                     26                     27
                     A                      A                      A
 Frequencies --  1344.7364              1397.9084              1447.3499
 Red. masses --     5.8864                 3.3983                 1.2176
 Frc consts  --     6.2716                 3.9127                 1.5027
 IR Inten    --    21.6058                 0.2292                16.7401

                    28                     29                     30
                     A                      A                      A
 Frequencies --  1472.2293              1477.1541              1480.2015
 Red. masses --     1.0455                 2.1962                 1.0791
 Frc consts  --     1.3351                 2.8234                 1.3931
 IR Inten    --     8.1058                58.0861                 8.2528

                    31                     32                     33
                     A                      A                      A
 Frequencies --  1592.7906              1625.6044              3007.2179
 Red. masses --     5.1863                 7.9718                 1.0348
 Frc consts  --     7.7522                12.4118                 5.5136
 IR Inten    --    99.3353                 2.2125                51.1353

                    34                     35                     36
                     A                      A                      A
 Frequencies --  3072.1862              3147.9660              3178.9649
 Red. masses --     1.1059                 1.0994                 1.0867
 Frc consts  --     6.1499                 6.4188                 6.4707
 IR Inten    --    36.5661                20.1329                 2.9643

                    37                     38                     39
                     A                      A                      A
 Frequencies --  3180.6502              3195.3742              3210.4473
 Red. masses --     1.0880                 1.0949                 1.0919
 Frc consts  --     6.4850                 6.5866                 6.6309
 IR Inten    --     3.4749                 4.5147                 5.9875

 - Thermochemistry -
 -------------------
 Temperature   298.150 Kelvin.  Pressure   1.00000 Atm.
 Atom     1 has atomic number  6 and mass  12.00000

 Molecular mass:   107.04969 amu.
 Principal axes and moments of inertia in atomic units:
                           1         2         3
     Eigenvalues --   363.386991108.030151459.77261
           X            0.99952   0.03109   0.00001
           Y           -0.03109   0.99952  -0.00001
           Z           -0.00001   0.00001   1.00000
 This molecule is an asymmetric top.
 Rotational symmetry number  1.
 Rotational temperatures (Kelvin)      0.23835     0.07817     0.05933
 Rotational constants (GHZ):           4.96644     1.62878     1.23632
 Zero-point vibrational energy     313246.1 (Joules/Mol)
                                   74.86761 (Kcal/Mol)
 Warning -- explicit consideration of   9 degrees of freedom as
           vibrations may cause significant error
 Vibrational temperatures:    137.35   315.90   377.09   411.27   595.16
          (Kelvin)            641.59   694.23   804.55   872.30   975.82
                             1120.34  1126.38  1159.48  1319.81  1364.73
                             1414.47  1502.09  1524.90  1587.81  1666.30
                             1677.23  1716.40  1814.27  1855.24  1934.77
                             2011.28  2082.41  2118.21  2125.29  2129.68
                             2291.67  2338.88  4326.71  4420.19  4529.22
                             4573.82  4576.24  4597.43  4619.11

 Zero-point correction=                           0.119309 (Hartree/Particle)
 Thermal correction to Energy=                    0.126178
 Thermal correction to Enthalpy=                  0.127122
 Thermal correction to Gibbs Free Energy=         0.087658
 Sum of electronic and zero-point Energies=           -346.004360
 Sum of electronic and thermal Energies=              -345.997492
 Sum of electronic and thermal Enthalpies=            -345.996548
 Sum of electronic and thermal Free Energies=         -346.036011

                     E (Thermal)             CV                S
                      KCal/Mol        Cal/Mol-Kelvin    Cal/Mol-Kelvin
 Total                   79.178             26.182             83.058
 Electronic               0.000              0.000              1.377
 Translational            0.889              2.981             39.921
 Rotational               0.889              2.981             27.866
 Vibrational             77.400             20.220             13.894
 Vibration     1          0.603              1.952              3.545
 Vibration     2          0.647              1.811              1.963
 Vibration     3          0.669              1.742              1.648
 Vibration     4          0.684              1.700              1.498
 Vibration     5          0.777              1.441              0.914
 Vibration     6          0.805              1.370              0.808
 Vibration     7          0.839              1.289              0.703
 Vibration     8          0.915              1.120              0.525
 Vibration     9          0.965              1.018              0.439

 Normal termination of Gaussian 09 at Tue Mar 20 03:34:30 2018.
