 Gaussian 09, Revision B.01,
 Gaussian 09:  EM64L-G09RevB.01 12-Aug-2010

 -------------------------------------------------
 #p Temperature=298.15 opt freq UB3LYP/aug-cc-pVDZ
 -------------------------------------------------

 -------------------------------------
 4-CH3O-Ph+-UB3LYP-aug-cc-pVDZ-Triplet
 -------------------------------------
 Symbolic Z-matrix:
 Charge =  1 Multiplicity = 3

 SCF Done:  E(UB3LYP) =  -345.787745407     A.U. after   17 cycles
 SCF Done:  E(UB3LYP) =  -345.801290304     A.U. after   15 cycles
 SCF Done:  E(UB3LYP) =  -345.804426505     A.U. after   15 cycles
 SCF Done:  E(UB3LYP) =  -345.804877436     A.U. after   15 cycles
 SCF Done:  E(UB3LYP) =  -345.805111619     A.U. after   16 cycles
 SCF Done:  E(UB3LYP) =  -345.779607329     A.U. after   21 cycles
 SCF Done:  E(UB3LYP) =  -345.805124467     A.U. after   22 cycles
 SCF Done:  E(UB3LYP) =  -345.760177658     A.U. after   22 cycles
 SCF Done:  E(UB3LYP) =  -345.805127781     A.U. after   21 cycles
 SCF Done:  E(UB3LYP) =  -345.760731381     A.U. after   18 cycles
 SCF Done:  E(UB3LYP) =  -345.826313496     A.U. after   18 cycles
 SCF Done:  E(UB3LYP) =  -345.828754731     A.U. after   19 cycles
 SCF Done:  E(UB3LYP) =  -345.828917877     A.U. after   19 cycles
 SCF Done:  E(UB3LYP) =  -345.828964178     A.U. after   19 cycles
 SCF Done:  E(UB3LYP) =  -345.829010628     A.U. after   14 cycles
 SCF Done:  E(UB3LYP) =  -345.829012248     A.U. after   12 cycles
 SCF Done:  E(UB3LYP) =  -345.829012994     A.U. after   12 cycles
 SCF Done:  E(UB3LYP) =  -345.829013174     A.U. after   11 cycles
 SCF Done:  E(UB3LYP) =  -345.829013250     A.U. after   11 cycles
 Optimization completed.
    -- Stationary point found.
 Normal termination of Gaussian 09 at Thu Jan 20 19:21:29 2005.

 ----------------------------------------------------------------------
 #P Geom=AllCheck Guess=TCheck SCRF=Check GenChk UB3LYP/Aug-CC-pVDZ Fre
 q
 ----------------------------------------------------------------------

 4-CH3O-Ph+-UB3LYP-aug-cc-pVDZ-Triplet
 -------------------------------------
 Redundant internal coordinates taken from checkpoint file:
 4-CH3O-Ph+-UB3LYP-aug-cc-pVDZ-Triplet.chk
 Charge =  1 Multiplicity = 3

                         Standard orientation:
 ---------------------------------------------------------------------
 Center     Atomic      Atomic             Coordinates (Angstroms)
 Number     Number       Type             X           Y           Z
 ---------------------------------------------------------------------
      1          6           0       -0.001004    1.131359   -0.000005
      2          6           0       -1.344537    1.446937    0.000010
      3          6           0       -2.253133    0.375188    0.000004
      4          6           0       -1.948473   -0.989711   -0.000001
      5          6           0       -0.607159   -1.311280   -0.000009
      6          6           0        0.379180   -0.255130    0.000005
      7          1           0        0.753026    1.915632   -0.000028
      8          1           0       -1.686451    2.482238   -0.000021
      9          1           0       -2.723339   -1.756318   -0.000021
     10          1           0       -0.253277   -2.342503   -0.000053
     11          8           0        1.617182   -0.675767    0.000032
     12          6           0        2.756197    0.238786   -0.000015
     13          1           0        3.630159   -0.414394   -0.000101
     14          1           0        2.728064    0.852254    0.907792
     15          1           0        2.727938    0.852325   -0.907764
 ---------------------------------------------------------------------

 SCF Done:  E(UB3LYP) =  -345.829013250     A.U. after    1 cycles

 The electronic state is 3-A.
 Alpha  occ. eigenvalues --  -19.42706 -10.49481 -10.44251 -10.42593 -10.41588
 Alpha  occ. eigenvalues --  -10.41576 -10.41315 -10.40530  -1.31677  -1.07878
 Alpha  occ. eigenvalues --   -0.97933  -0.96883  -0.90216  -0.82899  -0.79691
 Alpha  occ. eigenvalues --   -0.74476  -0.70091  -0.69001  -0.66728  -0.65111
 Alpha  occ. eigenvalues --   -0.64335  -0.61817  -0.59693  -0.57624  -0.55284
 Alpha  occ. eigenvalues --   -0.54084  -0.47679  -0.45547  -0.45127
 Alpha virt. eigenvalues --   -0.22882  -0.22101  -0.14238  -0.12952  -0.11774
 Alpha virt. eigenvalues --   -0.10881  -0.10066  -0.09131  -0.08561  -0.07660
 Alpha virt. eigenvalues --   -0.07512  -0.06475  -0.05753  -0.05353  -0.05172

  Beta  occ. eigenvalues --  -19.42004 -10.49252 -10.42614 -10.42106 -10.41349
  Beta  occ. eigenvalues --  -10.41286 -10.41204 -10.40631  -1.30355  -1.06273
  Beta  occ. eigenvalues --   -0.97201  -0.95507  -0.88612  -0.82030  -0.78369
  Beta  occ. eigenvalues --   -0.73919  -0.69263  -0.66707  -0.65216  -0.64124
  Beta  occ. eigenvalues --   -0.63671  -0.61269  -0.58034  -0.57095  -0.53499
  Beta  occ. eigenvalues --   -0.52278  -0.46920
  Beta virt. eigenvalues --   -0.36122  -0.28012  -0.21061  -0.18808  -0.14155
  Beta virt. eigenvalues --   -0.12750  -0.11680  -0.10805  -0.09956  -0.08811
  Beta virt. eigenvalues --   -0.08278  -0.07403  -0.06423  -0.05868  -0.05693

 Mulliken atomic charges:
              1
     1  C    1.284488
     2  C    0.743689
     3  C   -0.783741
     4  C    0.868413
     5  C    0.964402
     6  C    0.863199
     7  H   -1.046248
     8  H   -0.532834
     9  H   -0.508711
    10  H   -0.764163
    11  O   -0.546177
    12  C    1.195765
    13  H   -0.448926
    14  H   -0.144579
    15  H   -0.144577
 Sum of Mulliken atomic charges =   1.00000

 Dipole moment (field-independent basis, Debye):
    X=              0.8927    Y=              0.9630    Z=             -0.0001  Tot=              1.3131
 Quadrupole moment (field-independent basis, Debye-Ang):
   XX=            -21.6826   YY=            -32.5675   ZZ=            -45.7958
   XY=              3.3280   XZ=             -0.0001   YZ=              0.0001

  Exact polarizability: 119.598  -0.933  82.365   0.000   0.000  47.467
 Approx polarizability: 190.274 -11.476 133.658   0.000   0.000  72.499

                     1                      2                      3
                     A                      A                      A
 Frequencies --   125.3947               174.8769               242.4017
 Red. masses --     3.4463                 1.0757                 4.5224
 Frc consts  --     0.0319                 0.0194                 0.1566
 IR Inten    --     1.4960                 0.8714                 4.7718

                     4                      5                      6
                     A                      A                      A
 Frequencies --   244.9330               366.6437               439.8574
 Red. masses --     3.1989                 2.8692                 5.0732
 Frc consts  --     0.1131                 0.2272                 0.5783
 IR Inten    --     3.6263                 0.5417                 3.9915

                     7                      8                      9
                     A                      A                      A
 Frequencies --   491.1665               544.5181               564.5706
 Red. masses --     2.8058                 6.0183                 6.5376
 Frc consts  --     0.3988                 1.0514                 1.2277
 IR Inten    --     8.0161                 2.1154                 3.4101

                    10                     11                     12
                     A                      A                      A
 Frequencies --   711.1872               761.8579               762.9621
 Red. masses --     3.1411                 1.2548                 5.1068
 Frc consts  --     0.9361                 0.4291                 1.7515
 IR Inten    --     8.4563                 0.3187                 4.0844

                    13                     14                     15
                     A                      A                      A
 Frequencies --   834.0161               955.0413               963.7677
 Red. masses --     1.7867                 5.8444                 7.7059
 Frc consts  --     0.7322                 3.1407                 4.2171
 IR Inten    --    62.4299                28.1810                22.3827

                    16                     17                     18
                     A                      A                      A
 Frequencies --   980.6506               984.2782               993.5716
 Red. masses --     1.3219                 1.3499                 2.7357
 Frc consts  --     0.7490                 0.7705                 1.5912
 IR Inten    --     0.0437                 0.2913                15.1907

                    19                     20                     21
                     A                      A                      A
 Frequencies --  1121.3305              1135.6358              1175.5846
 Red. masses --     1.2497                 1.2649                 1.1400
 Frc consts  --     0.9258                 0.9611                 0.9282
 IR Inten    --     5.6958                 0.7391                 5.7495

                    22                     23                     24
                     A                      A                      A
 Frequencies --  1182.7699              1278.2804              1347.9543
 Red. masses --     1.3187                 1.4631                 3.2394
 Frc consts  --     1.0869                 1.4085                 3.4679
 IR Inten    --     2.5154                 0.6477                36.1031

                    25                     26                     27
                     A                      A                      A
 Frequencies --  1366.4846              1418.3108              1427.9363
 Red. masses --     3.3298                 1.8620                 2.1509
 Frc consts  --     3.6634                 2.2068                 2.5840
 IR Inten    --    16.2856                99.6350                36.2203

                    28                     29                     30
                     A                      A                      A
 Frequencies --  1450.0880              1471.4531              1473.4267
 Red. masses --     1.3309                 1.0444                 2.6184
 Frc consts  --     1.6488                 1.3323                 3.3492
 IR Inten    --    18.8401                18.0445                 5.5016

                    31                     32                     33
                     A                      A                      A
 Frequencies --  1497.7672              1594.7047              3062.3329
 Red. masses --     2.3685                 5.3830                 1.0300
 Frc consts  --     3.1305                 8.0656                 5.6911
 IR Inten    --   156.6424                 2.3006                 1.2513

                    34                     35                     36
                     A                      A                      A
 Frequencies --  3161.3196              3201.0148              3202.0484
 Red. masses --     1.1096                 1.0890                 1.0902
 Frc consts  --     6.5335                 6.5743                 6.5859
 IR Inten    --     0.4681                 5.6381                 8.6359

                    37                     38                     39
                     A                      A                      A
 Frequencies --  3208.5141              3213.9461              3226.1987
 Red. masses --     1.1065                 1.0981                 1.0949
 Frc consts  --     6.7113                 6.6831                 6.7143
 IR Inten    --     1.1914                14.1918                 6.9846

 - Thermochemistry -
 -------------------
 Temperature   298.150 Kelvin.  Pressure   1.00000 Atm.
 Atom     1 has atomic number  6 and mass  12.00000

 Molecular mass:   107.04969 amu.
 Principal axes and moments of inertia in atomic units:
                           1         2         3
     Eigenvalues --   374.912271100.421351463.47040
           X            0.99959   0.02858   0.00000
           Y           -0.02858   0.99959   0.00000
           Z            0.00000   0.00000   1.00000
 This molecule is an asymmetric top.
 Rotational symmetry number  1.
 Rotational temperatures (Kelvin)      0.23102     0.07871     0.05918
 Rotational constants (GHZ):           4.81377     1.64005     1.23319
 Zero-point vibrational energy     313175.1 (Joules/Mol)
                                   74.85066 (Kcal/Mol)
 Warning -- explicit consideration of   9 degrees of freedom as
           vibrations may cause significant error
 Vibrational temperatures:    180.41   251.61   348.76   352.40   527.52
          (Kelvin)            632.86   706.68   783.44   812.29  1023.24
                             1096.14  1097.73  1199.96  1374.09  1386.64
                             1410.94  1416.16  1429.53  1613.34  1633.92
                             1691.40  1701.74  1839.16  1939.40  1966.06
                             2040.63  2054.48  2086.35  2117.09  2119.93
                             2154.95  2294.42  4406.01  4548.43  4605.54
                             4607.03  4616.33  4624.15  4641.77

 Zero-point correction=                           0.119282 (Hartree/Particle)
 Thermal correction to Energy=                    0.126324
 Thermal correction to Enthalpy=                  0.127268
 Thermal correction to Gibbs Free Energy=         0.087140
 Sum of electronic and zero-point Energies=           -345.709731
 Sum of electronic and thermal Energies=              -345.702689
 Sum of electronic and thermal Enthalpies=            -345.701745
 Sum of electronic and thermal Free Energies=         -345.741874

                     E (Thermal)             CV                S
                      KCal/Mol        Cal/Mol-Kelvin    Cal/Mol-Kelvin
 Total                   79.270             26.556             84.458
 Electronic               0.000              0.000              2.183
 Translational            0.889              2.981             39.921
 Rotational               0.889              2.981             27.892
 Vibrational             77.492             20.594             14.461
 Vibration     1          0.610              1.928              3.015
 Vibration     2          0.627              1.873              2.382
 Vibration     3          0.659              1.775              1.785
 Vibration     4          0.660              1.771              1.767
 Vibration     5          0.740              1.541              1.094
 Vibration     6          0.800              1.383              0.827
 Vibration     7          0.847              1.270              0.681
 Vibration     8          0.900              1.152              0.556
 Vibration     9          0.920              1.108              0.515

 Optimization completed.
    -- Stationary point found.
 Normal termination of Gaussian 09 at Thu Jan 20 19:33:09 2005.
