 Gaussian 09, Revision B.01,
 Gaussian 09:  EM64L-G09RevB.01 12-Aug-2010

 -------------------------------------------------
 #p Temperature=298.15 opt freq UB3LYP/aug-cc-pVDZ
 -------------------------------------------------

 ----------------------------------------
 4-CH3O-Ph-N2+-UB3LYP-aug-cc-pVDZ-Triplet
 ----------------------------------------
 Symbolic Z-matrix:
 Charge =  1 Multiplicity = 3

 SCF Done:  E(UB3LYP) =  -455.300671947     A.U. after   27 cycles
 SCF Done:  E(UB3LYP) =  -455.319561183     A.U. after   23 cycles
 SCF Done:  E(UB3LYP) =  -455.322996219     A.U. after   19 cycles
 SCF Done:  E(UB3LYP) =  -455.323246823     A.U. after   18 cycles
 SCF Done:  E(UB3LYP) =  -455.323978665     A.U. after   19 cycles
 SCF Done:  E(UB3LYP) =  -455.291075330     A.U. after   24 cycles
 SCF Done:  E(UB3LYP) =  -455.324293153     A.U. after   22 cycles
 SCF Done:  E(UB3LYP) =  -455.323814777     A.U. after   24 cycles
 SCF Done:  E(UB3LYP) =  -455.326029398     A.U. after   22 cycles
 SCF Done:  E(UB3LYP) =  -455.331099452     A.U. after   22 cycles
 SCF Done:  E(UB3LYP) =  -455.361716029     A.U. after   22 cycles
 SCF Done:  E(UB3LYP) =  -455.361812175     A.U. after   16 cycles
 SCF Done:  E(UB3LYP) =  -455.361939049     A.U. after   17 cycles
 SCF Done:  E(UB3LYP) =  -455.362060397     A.U. after   17 cycles
 SCF Done:  E(UB3LYP) =  -455.362218263     A.U. after   17 cycles
 SCF Done:  E(UB3LYP) =  -455.362339016     A.U. after   18 cycles
 SCF Done:  E(UB3LYP) =  -455.362346346     A.U. after   15 cycles
 SCF Done:  E(UB3LYP) =  -455.362346608     A.U. after   14 cycles
 SCF Done:  E(UB3LYP) =  -455.362347114     A.U. after   13 cycles
 Optimization completed.
    -- Stationary point found.
 Normal termination of Gaussian 09 at Thu Jan 20 17:43:08 2005.

 ----------------------------------------------------------------------
 #P Geom=AllCheck Guess=TCheck SCRF=Check GenChk UB3LYP/Aug-CC-pVDZ Fre
 q
 ----------------------------------------------------------------------

 4-CH3O-Ph-N2+-UB3LYP-aug-cc-pVDZ-Triplet
 ----------------------------------------
 Redundant internal coordinates taken from checkpoint file:
 4-CH3O-Ph-N2+-UB3LYP-aug-cc-pVDZ-Triplet.chk
 Charge =  1 Multiplicity = 3

                         Standard orientation:
 ---------------------------------------------------------------------
 Center     Atomic      Atomic             Coordinates (Angstroms)
 Number     Number       Type             X           Y           Z
 ---------------------------------------------------------------------
      1          6           0        0.592670   -1.020929   -0.054391
      2          6           0       -0.777889   -1.069167   -0.084005
      3          6           0       -1.530879    0.145532   -0.064219
      4          6           0       -0.902639    1.414589   -0.017134
      5          6           0        0.467403    1.477933    0.028694
      6          6           0        1.238268    0.259280    0.008329
      7          1           0        1.177227   -1.937686   -0.075076
      8          1           0       -1.308818   -2.019632   -0.126599
      9          1           0       -1.518197    2.313338   -0.018413
     10          1           0        1.005413    2.424172    0.070457
     11          7           0       -2.964205    0.131444   -0.142709
     12          7           0       -3.619832   -0.788757    0.234560
     13          8           0        2.532403    0.432676    0.044993
     14          6           0        3.473436   -0.684776    0.028004
     15          1           0        4.456520   -0.213742    0.072611
     16          1           0        3.351779   -1.246001   -0.905502
     17          1           0        3.302895   -1.315433    0.907957
 ---------------------------------------------------------------------

 SCF Done:  E(UB3LYP) =  -455.362347114     A.U. after    2 cycles

 The electronic state is 3-A.
 Alpha  occ. eigenvalues --  -19.42817 -14.58665 -14.57441 -10.49690 -10.46517
 Alpha  occ. eigenvalues --  -10.42701 -10.41438 -10.41429 -10.41364 -10.40488
 Alpha  occ. eigenvalues --   -1.31819  -1.24659  -1.08098  -0.99248  -0.97815
 Alpha  occ. eigenvalues --   -0.92446  -0.85675  -0.82408  -0.77793  -0.74326
 Alpha  occ. eigenvalues --   -0.71236  -0.69093  -0.66090  -0.65188  -0.64145
 Alpha  occ. eigenvalues --   -0.62854  -0.62575  -0.60757  -0.58806  -0.58275
 Alpha  occ. eigenvalues --   -0.56268  -0.54188  -0.53897  -0.47923  -0.45072
 Alpha  occ. eigenvalues --   -0.38040
 Alpha virt. eigenvalues --   -0.25799  -0.22282  -0.18466  -0.14324  -0.13037
 Alpha virt. eigenvalues --   -0.11718  -0.10956  -0.10152  -0.10009  -0.08267
 Alpha virt. eigenvalues --   -0.07857  -0.07388  -0.06466  -0.05849  -0.05453

  Beta  occ. eigenvalues --  -19.42160 -14.58406 -14.55574 -10.49476 -10.45574
  Beta  occ. eigenvalues --  -10.42721 -10.41452 -10.41218 -10.41153 -10.40641
  Beta  occ. eigenvalues --   -1.30584  -1.22522  -1.07073  -0.97646  -0.97460
  Beta  occ. eigenvalues --   -0.91579  -0.84585  -0.81690  -0.76847  -0.73856
  Beta  occ. eigenvalues --   -0.70645  -0.66946  -0.65199  -0.63998  -0.63518
  Beta  occ. eigenvalues --   -0.62139  -0.60592  -0.58303  -0.57635  -0.57192
  Beta  occ. eigenvalues --   -0.54049  -0.52895  -0.51366  -0.47291
  Beta virt. eigenvalues --   -0.36843  -0.23463  -0.22924  -0.21006  -0.16082
  Beta virt. eigenvalues --   -0.14220  -0.12846  -0.11615  -0.10880  -0.10064
  Beta virt. eigenvalues --   -0.09816  -0.08076  -0.07280  -0.06845  -0.06163

 Mulliken atomic charges:
              1
     1  C    1.230570
     2  C    0.987151
     3  C   -0.081589
     4  C    1.064051
     5  C    0.870790
     6  C    0.753263
     7  H   -1.074994
     8  H   -0.786683
     9  H   -0.712565
    10  H   -0.788863
    11  N    0.039828
    12  N   -0.402213
    13  O   -0.545596
    14  C    1.197753
    15  H   -0.459707
    16  H   -0.145865
    17  H   -0.145332
 Sum of Mulliken atomic charges =   1.00000

 Dipole moment (field-independent basis, Debye):
    X=              5.0451    Y=             -0.5516    Z=             -0.1590  Tot=              5.0777
 Quadrupole moment (field-independent basis, Debye-Ang):
   XX=            -32.7054   YY=            -42.9577   ZZ=            -55.9510
   XY=             -6.5152   XZ=              0.6133   YZ=              0.9248

  Exact polarizability: 173.045   2.538  93.013  -0.262  -0.595  55.029
 Approx polarizability: 270.184  18.251 153.987  -0.212  -2.452  86.639

                     1                      2                      3
                     A                      A                      A
 Frequencies --    55.6700                88.4610               161.8300
 Red. masses --     7.8945                 4.8439                 1.1359
 Frc consts  --     0.0144                 0.0223                 0.0175
 IR Inten    --     2.5503                 0.7272                 1.4381

                     4                      5                      6
                     A                      A                      A
 Frequencies --   169.6939               197.4675               268.9346
 Red. masses --     3.9101                 4.3125                 4.6262
 Frc consts  --     0.0663                 0.0991                 0.1971
 IR Inten    --     3.9694                 9.1196                 2.0258

                     7                      8                      9
                     A                      A                      A
 Frequencies --   310.0998               366.6735               385.1278
 Red. masses --     5.1997                 7.6558                 2.9894
 Frc consts  --     0.2946                 0.6065                 0.2612
 IR Inten    --     1.7703                 3.6272                 1.5448

                    10                     11                     12
                     A                      A                      A
 Frequencies --   496.8218               507.8133               563.3143
 Red. masses --     3.3790                 3.9358                 4.7018
 Frc consts  --     0.4914                 0.5980                 0.8791
 IR Inten    --     5.0326                 5.5012                14.8151

                    13                     14                     15
                     A                      A                      A
 Frequencies --   594.0895               696.3334               746.3811
 Red. masses --     6.8127                 5.5905                 4.2056
 Frc consts  --     1.4167                 1.5971                 1.3804
 IR Inten    --     0.2131                 5.4038                 1.6217

                    16                     17                     18
                     A                      A                      A
 Frequencies --   789.9348               804.4616               871.5061
 Red. masses --     1.2709                 6.2987                 1.7547
 Frc consts  --     0.4673                 2.4017                 0.7852
 IR Inten    --     0.8436                 2.8563                70.0622

                    19                     20                     21
                     A                      A                      A
 Frequencies --   960.9669               982.5054              1000.2138
 Red. masses --     5.9572                 3.0518                 1.3729
 Frc consts  --     3.2412                 1.7357                 0.8092
 IR Inten    --    49.9850                30.8871                 1.2619

                    22                     23                     24
                     A                      A                      A
 Frequencies --  1005.2402              1087.1173              1134.1107
 Red. masses --     1.3543                 3.6036                 1.2981
 Frc consts  --     0.8063                 2.5092                 0.9837
 IR Inten    --     0.1391                31.3274                 9.6454

                    25                     26                     27
                     A                      A                      A
 Frequencies --  1134.8709              1182.7420              1198.0714
 Red. masses --     1.2664                 1.3171                 1.2499
 Frc consts  --     0.9610                 1.0855                 1.0571
 IR Inten    --     0.9341                 2.6703                16.8303

                    28                     29                     30
                     A                      A                      A
 Frequencies --  1293.8325              1357.4023              1365.9347
 Red. masses --     1.5822                 3.0506                 3.2912
 Frc consts  --     1.5605                 3.3117                 3.6179
 IR Inten    --     1.2088                57.1648                46.1309

                    31                     32                     33
                     A                      A                      A
 Frequencies --  1430.1602              1446.7307              1458.8893
 Red. masses --     1.1932                 3.5034                 1.1673
 Frc consts  --     1.4379                 4.3203                 1.4638
 IR Inten    --    84.4412                17.6835                18.6559

                    34                     35                     36
                     A                      A                      A
 Frequencies --  1469.4290              1506.6235              1511.3798
 Red. masses --     1.0448                 3.6167                 3.1235
 Frc consts  --     1.3292                 4.8369                 4.2038
 IR Inten    --    18.2682                55.3468               260.6857

                    37                     38                     39
                     A                      A                      A
 Frequencies --  1630.0306              1770.4162              3061.9057
 Red. masses --     5.8096                13.2344                 1.0301
 Frc consts  --     9.0947                24.4402                 5.6898
 IR Inten    --     5.4459                31.4685                 1.3016

                    40                     41                     42
                     A                      A                      A
 Frequencies --  3160.9255              3208.7887              3210.9047
 Red. masses --     1.1096                 1.1058                 1.0925
 Frc consts  --     6.5321                 6.7081                 6.6363
 IR Inten    --     0.4842                 1.4634                 7.5760

                    43                     44                     45
                     A                      A                      A
 Frequencies --  3211.5419              3222.1842              3230.7596
 Red. masses --     1.0907                 1.0986                 1.0954
 Frc consts  --     6.6282                 6.7206                 6.7366
 IR Inten    --     2.0395                14.3938                 7.1634

 - Thermochemistry -
 -------------------
 Temperature   298.150 Kelvin.  Pressure   1.00000 Atm.
 Atom     1 has atomic number  6 and mass  12.00000

 Molecular mass:   135.05584 amu.
 Principal axes and moments of inertia in atomic units:
                           1         2         3
     Eigenvalues --   429.965562411.995382820.75630
           X            0.99983  -0.01849   0.00062
           Y            0.01849   0.99982   0.00383
           Z           -0.00069  -0.00382   0.99999
 This molecule is an asymmetric top.
 Rotational symmetry number  1.
 Rotational temperatures (Kelvin)      0.20144     0.03591     0.03071
 Rotational constants (GHZ):           4.19741     0.74824     0.63981
 Zero-point vibrational energy     336798.4 (Joules/Mol)
                                   80.49674 (Kcal/Mol)
 Warning -- explicit consideration of  13 degrees of freedom as
           vibrations may cause significant error
 Vibrational temperatures:     80.10   127.28   232.84   244.15   284.11
          (Kelvin)            386.94   446.16   527.56   554.11   714.81
                              730.63   810.48   854.76  1001.87  1073.87
                             1136.54  1157.44  1253.90  1382.62  1413.60
                             1439.08  1446.31  1564.12  1631.73  1632.82
                             1701.70  1723.76  1861.53  1953.00  1965.27
                             2057.68  2081.52  2099.01  2114.18  2167.69
                             2174.54  2345.25  2547.23  4405.39  4547.86
                             4616.73  4619.77  4620.69  4636.00  4648.34

 Zero-point correction=                           0.128280 (Hartree/Particle)
 Thermal correction to Energy=                    0.137569
 Thermal correction to Enthalpy=                  0.138514
 Thermal correction to Gibbs Free Energy=         0.092427
 Sum of electronic and zero-point Energies=           -455.234067
 Sum of electronic and thermal Energies=              -455.224778
 Sum of electronic and thermal Enthalpies=            -455.223834
 Sum of electronic and thermal Free Energies=         -455.269920

                     E (Thermal)             CV                S
                      KCal/Mol        Cal/Mol-Kelvin    Cal/Mol-Kelvin
 Total                   86.326             33.763             96.998
 Electronic               0.000              0.000              2.183
 Translational            0.889              2.981             40.614
 Rotational               0.889              2.981             29.460
 Vibrational             84.549             27.801             24.740
 Vibration     1          0.596              1.975              4.605
 Vibration     2          0.601              1.957              3.694
 Vibration     3          0.622              1.889              2.528
 Vibration     4          0.625              1.880              2.439
 Vibration     5          0.637              1.843              2.157
 Vibration     6          0.673              1.730              1.603
 Vibration     7          0.699              1.654              1.362
 Vibration     8          0.740              1.541              1.094
 Vibration     9          0.754              1.502              1.019
 Vibration    10          0.852              1.257              0.666
 Vibration    11          0.863              1.233              0.639
 Vibration    12          0.919              1.111              0.517
 Vibration    13          0.952              1.044              0.460

 Optimization completed.
    -- Stationary point found.
 Normal termination of Gaussian 09 at Thu Jan 20 18:05:33 2005.
