 Gaussian 09, Revision B.01,
 Gaussian 09:  EM64L-G09RevB.01 12-Aug-2010

 -------------------------------------------------
 #p Temperature=298.15 opt freq UB3LYP/aug-cc-pVDZ
 -------------------------------------------------

 ------------------------------------
 4-NO2-Ph+-UB3LYP-aug-cc-pVDZ-Triplet
 ------------------------------------
 Symbolic Z-matrix:
 Charge =  1 Multiplicity = 3

 SCF Done:  E(UB3LYP) =  -435.762101592     A.U. after   24 cycles
 SCF Done:  E(UB3LYP) =  -435.765581275     A.U. after   24 cycles
 SCF Done:  E(UB3LYP) =  -435.765869143     A.U. after   24 cycles
 SCF Done:  E(UB3LYP) =  -435.763515065     A.U. after   23 cycles
 SCF Done:  E(UB3LYP) =  -435.766011209     A.U. after   23 cycles
 SCF Done:  E(UB3LYP) =  -435.766071573     A.U. after   17 cycles
 SCF Done:  E(UB3LYP) =  -435.766087299     A.U. after   17 cycles
 SCF Done:  E(UB3LYP) =  -435.766089388     A.U. after   22 cycles
 SCF Done:  E(UB3LYP) =  -435.766089431     A.U. after   11 cycles
 Optimization completed.
    -- Stationary point found.
 Normal termination of Gaussian 09 at Thu Jan 20 22:13:03 2005.

 ----------------------------------------------------------------------
 #P Geom=AllCheck Guess=TCheck SCRF=Check GenChk UB3LYP/Aug-CC-pVDZ Fre
 q
 ----------------------------------------------------------------------

 4-NO2-Ph+-UB3LYP-aug-cc-pVDZ-Triplet
 ------------------------------------
 Redundant internal coordinates taken from checkpoint file:
 4-NO2-Ph+-UB3LYP-aug-cc-pVDZ-Triplet.chk
 Charge =  1 Multiplicity = 3

                         Standard orientation:
 ---------------------------------------------------------------------
 Center     Atomic      Atomic             Coordinates (Angstroms)
 Number     Number       Type             X           Y           Z
 ---------------------------------------------------------------------
      1          6           0       -0.476283   -1.246594   -0.209376
      2          6           0       -1.858040   -1.246761   -0.211291
      3          6           0       -2.475506    0.000004   -0.000004
      4          6           0       -1.858025    1.246776    0.211279
      5          6           0       -0.476268    1.246614    0.209362
      6          6           0        0.184958    0.000017   -0.000018
      7          1           0        0.107122   -2.156194   -0.354208
      8          1           0       -2.437594   -2.157830   -0.363937
      9          1           0       -2.437582    2.157843    0.363929
     10          1           0        0.107132    2.156218    0.354195
     11          7           0        1.640436   -0.000002   -0.000019
     12          8           0        2.183228   -0.698819    0.839968
     13          8           0        2.183379    0.698774   -0.839913
 ---------------------------------------------------------------------

 SCF Done:  E(UB3LYP) =  -435.766089431     A.U. after    1 cycles

 The electronic state is 3-A.
 Alpha  occ. eigenvalues --  -19.41809 -19.41808 -14.78921 -10.51514 -10.48707
 Alpha  occ. eigenvalues --  -10.45395 -10.45393 -10.44605 -10.44604  -1.46336
 Alpha  occ. eigenvalues --   -1.29435  -1.13045  -1.04423  -1.01066  -0.92227
 Alpha  occ. eigenvalues --   -0.86611  -0.82056  -0.78236  -0.75866  -0.73736
 Alpha  occ. eigenvalues --   -0.70334  -0.69930  -0.68386  -0.67309  -0.63089
 Alpha  occ. eigenvalues --   -0.60175  -0.54903  -0.53998  -0.53672  -0.50670
 Alpha  occ. eigenvalues --   -0.50614  -0.48992
 Alpha virt. eigenvalues --   -0.30222  -0.26396  -0.25404  -0.15128  -0.12567
 Alpha virt. eigenvalues --   -0.12500  -0.11488  -0.11391  -0.09815  -0.09357
 Alpha virt. eigenvalues --   -0.09227  -0.06369  -0.05787  -0.05411  -0.04764

  Beta  occ. eigenvalues --  -19.41422 -19.41421 -14.78981 -10.50989 -10.46593
  Beta  occ. eigenvalues --  -10.45259 -10.45258 -10.44554 -10.44552  -1.45928
  Beta  occ. eigenvalues --   -1.28674  -1.11606  -1.02564  -1.00560  -0.90212
  Beta  occ. eigenvalues --   -0.85847  -0.80938  -0.77529  -0.75477  -0.73089
  Beta  occ. eigenvalues --   -0.69141  -0.68500  -0.67274  -0.66890  -0.60467
  Beta  occ. eigenvalues --   -0.59450  -0.53377  -0.51614  -0.51427  -0.50209
  Beta virt. eigenvalues --   -0.42268  -0.31449  -0.29086  -0.24396  -0.23219
  Beta virt. eigenvalues --   -0.14991  -0.12531  -0.12162  -0.11141  -0.09815
  Beta virt. eigenvalues --   -0.09214  -0.08875  -0.08762  -0.06343  -0.05452

 Mulliken atomic charges:
              1
     1  C    1.113213
     2  C    0.978255
     3  C   -0.642732
     4  C    0.978229
     5  C    1.113282
     6  C    0.209808
     7  H   -0.676546
     8  H   -0.493206
     9  H   -0.493212
    10  H   -0.676535
    11  N    0.557175
    12  O   -0.483858
    13  O   -0.483874
 Sum of Mulliken atomic charges =   1.00000

 Dipole moment (field-independent basis, Debye):
    X=             -5.2398    Y=              0.0001    Z=             -0.0001  Tot=              5.2398
 Quadrupole moment (field-independent basis, Debye-Ang):
   XX=            -35.9647   YY=            -33.4730   ZZ=            -49.6602
   XY=             -0.0003   XZ=              0.0000   YZ=              4.0434

  Exact polarizability: 149.192  -0.004  81.767   0.003  -1.220  52.100
 Approx polarizability: 286.487  -0.017 146.891   0.014 -17.905 102.057

                     1                      2                      3
                     A                      A                      A
 Frequencies --    47.7296                87.1143               179.4084
 Red. masses --     8.3148                11.4396                 6.2635
 Frc consts  --     0.0112                 0.0511                 0.1188
 IR Inten    --     0.2742                 0.2416                 3.2576

                     4                      5                      6
                     A                      A                      A
 Frequencies --   243.5382               346.4968               363.5966
 Red. masses --     6.0499                 2.8374                10.2125
 Frc consts  --     0.2114                 0.2007                 0.7955
 IR Inten    --     8.0239                 0.4329                 1.5076

                     7                      8                      9
                     A                      A                      A
 Frequencies --   483.7337               517.9161               652.1693
 Red. masses --     3.1444                 7.1537                 8.3159
 Frc consts  --     0.4335                 1.1306                 2.0839
 IR Inten    --     7.3734                 0.1059                 2.0262

                    10                     11                     12
                     A                      A                      A
 Frequencies --   689.9499               726.9379               764.3385
 Red. masses --     4.2468                 5.7128                 1.2661
 Frc consts  --     1.1911                 1.7787                 0.4358
 IR Inten    --     3.8705                12.9235                 2.5124

                    13                     14                     15
                     A                      A                      A
 Frequencies --   782.5678               822.5883               960.7439
 Red. masses --     7.7617                 1.6856                 5.1763
 Frc consts  --     2.8006                 0.6720                 2.8150
 IR Inten    --    29.3947                49.9937                38.3043

                    16                     17                     18
                     A                      A                      A
 Frequencies --   979.2801               982.8449               985.2325
 Red. masses --     1.6062                 1.3051                 2.2242
 Frc consts  --     0.9076                 0.7428                 1.2720
 IR Inten    --     1.2916                 0.3044                 7.5755

                    19                     20                     21
                     A                      A                      A
 Frequencies --  1126.1984              1136.6612              1185.6638
 Red. masses --     1.2389                 3.2217                 1.3815
 Frc consts  --     0.9258                 2.4524                 1.1442
 IR Inten    --     4.1491                 5.7757                 1.9470

                    22                     23                     24
                     A                      A                      A
 Frequencies --  1234.5051              1360.7023              1382.7715
 Red. masses --     2.2537                 3.0244                 3.5161
 Frc consts  --     2.0237                 3.2993                 3.9611
 IR Inten    --     2.4582                19.6037                 7.1955

                    25                     26                     27
                     A                      A                      A
 Frequencies --  1408.6825              1418.3289              1433.9093
 Red. masses --     1.8464                 9.0369                 3.9718
 Frc consts  --     2.1587                10.7108                 4.8115
 IR Inten    --   143.2862                 0.0004                45.5941

                    28                     29                     30
                     A                      A                      A
 Frequencies --  1474.0187              1592.0685              3200.5672
 Red. masses --    12.8158                 5.6464                 1.0883
 Frc consts  --    16.4059                 8.4323                 6.5684
 IR Inten    --    98.9129                48.5038                 4.4995

                    31                     32                     33
                     A                      A                      A
 Frequencies --  3201.7757              3213.1528              3214.6745
 Red. masses --     1.0907                 1.0978                 1.0999
 Frc consts  --     6.5880                 6.6776                 6.6968
 IR Inten    --    21.9639                56.1385                 0.2441

 - Thermochemistry -
 -------------------
 Temperature   298.150 Kelvin.  Pressure   1.00000 Atm.
 Atom     1 has atomic number  6 and mass  12.00000

 Molecular mass:   122.02420 amu.
 Principal axes and moments of inertia in atomic units:
                           1         2         3
     Eigenvalues --   479.210901390.376311690.32052
           X            1.00000   0.00000   0.00000
           Y            0.00000   0.99933   0.03655
           Z            0.00000  -0.03655   0.99933
 This molecule is an asymmetric top.
 Rotational symmetry number  1.
 Warning -- assumption of classical behavior for rotation
           may cause significant error
 Rotational temperatures (Kelvin)      0.18074     0.06230     0.05124
 Rotational constants (GHZ):           3.76607     1.29802     1.06769
 Zero-point vibrational energy     228485.9 (Joules/Mol)
                                   54.60945 (Kcal/Mol)
 Warning -- explicit consideration of   8 degrees of freedom as
           vibrations may cause significant error
 Vibrational temperatures:     68.67   125.34   258.13   350.40   498.53
          (Kelvin)            523.13   695.98   745.16   938.32   992.68
                             1045.90  1099.71  1125.94  1183.52  1382.29
                             1408.96  1414.09  1417.53  1620.35  1635.40
                             1705.90  1776.18  1957.74  1989.50  2026.78
                             2040.66  2063.07  2120.78  2290.63  4604.90
                             4606.64  4623.00  4625.19

 Zero-point correction=                           0.087026 (Hartree/Particle)
 Thermal correction to Energy=                    0.094587
 Thermal correction to Enthalpy=                  0.095531
 Thermal correction to Gibbs Free Energy=         0.052923
 Sum of electronic and zero-point Energies=           -435.679064
 Sum of electronic and thermal Energies=              -435.671502
 Sum of electronic and thermal Enthalpies=            -435.670558
 Sum of electronic and thermal Free Energies=         -435.713167

                     E (Thermal)             CV                S
                      KCal/Mol        Cal/Mol-Kelvin    Cal/Mol-Kelvin
 Total                   59.354             26.906             89.678
 Electronic               0.000              0.000              2.183
 Translational            0.889              2.981             40.311
 Rotational               0.889              2.981             28.512
 Vibrational             57.577             20.945             18.672
 Vibration     1          0.595              1.978              4.909
 Vibration     2          0.601              1.958              3.724
 Vibration     3          0.629              1.868              2.335
 Vibration     4          0.659              1.773              1.777
 Vibration     5          0.724              1.582              1.182
 Vibration     6          0.737              1.547              1.107
 Vibration     7          0.840              1.286              0.700
 Vibration     8          0.873              1.210              0.615

 Optimization completed.
    -- Stationary point found.
 Normal termination of Gaussian 09 at Thu Jan 20 22:23:28 2005.
