 Gaussian 09, Revision B.01,
 Gaussian 09:  EM64L-G09RevB.01 12-Aug-2010

 -------------------------------------------------
 #p Temperature=298.15 opt freq UB3LYP/aug-cc-pVDZ
 -------------------------------------------------

 ---------------------------------------
 4-NO2-Ph-N2+-UB3LYP-aug-cc-pVDZ-Triplet
 ---------------------------------------
 Symbolic Z-matrix:
 Charge =  1 Multiplicity = 3

 SCF Done:  E(UB3LYP) =  -545.290627580     A.U. after   33 cycles
 SCF Done:  E(UB3LYP) =  -545.308607841     A.U. after   32 cycles
 SCF Done:  E(UB3LYP) =  -545.316341212     A.U. after   26 cycles
 SCF Done:  E(UB3LYP) =  -545.322565545     A.U. after   27 cycles
 SCF Done:  E(UB3LYP) =  -545.323814420     A.U. after   26 cycles
 SCF Done:  E(UB3LYP) =  -545.323994899     A.U. after   26 cycles
 SCF Done:  E(UB3LYP) =  -545.324008435     A.U. after   25 cycles
 SCF Done:  E(UB3LYP) =  -545.324020862     A.U. after   26 cycles
 SCF Done:  E(UB3LYP) =  -545.324026667     A.U. after   28 cycles
 Optimization completed.
    -- Stationary point found.
 Normal termination of Gaussian 09 at Thu Jan 20 21:04:23 2005.

 ----------------------------------------------------------------------
 #P Geom=AllCheck Guess=TCheck SCRF=Check GenChk UB3LYP/Aug-CC-pVDZ Fre
 q
 ----------------------------------------------------------------------

 4-NO2-Ph-N2+-UB3LYP-aug-cc-pVDZ-Triplet
 ---------------------------------------
 Redundant internal coordinates taken from checkpoint file:
 4-NO2-Ph-N2+-UB3LYP-aug-cc-pVDZ-Triplet.chk
 Charge =  1 Multiplicity = 3

                         Standard orientation:
 ---------------------------------------------------------------------
 Center     Atomic      Atomic             Coordinates (Angstroms)
 Number     Number       Type             X           Y           Z
 ---------------------------------------------------------------------
      1          6           0       -0.308969    1.244920    0.000067
      2          6           0        1.067324    1.250025    0.000058
      3          6           0        1.742891    0.000002    0.000000
      4          6           0        1.067328   -1.250024   -0.000041
      5          6           0       -0.308966   -1.244922   -0.000009
      6          6           0       -0.991097   -0.000002    0.000047
      7          1           0       -0.868759    2.178636    0.000303
      8          1           0        1.627586    2.183300    0.000252
      9          1           0        1.627591   -2.183297   -0.000251
     10          1           0       -0.868754   -2.178639   -0.000229
     11          7           0       -2.362703   -0.000009    0.000053
     12          8           0       -3.122197    1.031442   -0.000267
     13          8           0       -3.122192   -1.031437    0.000164
     14          7           0        3.107944    0.000005   -0.000019
     15          7           0        4.229957   -0.000002   -0.000032
 ---------------------------------------------------------------------

 SCF Done:  E(UB3LYP) =  -545.324026667     A.U. after    2 cycles

 The electronic state is 3-A.
 Alpha  occ. eigenvalues --  -19.41925 -19.41924 -14.72853 -14.71356 -14.67845
 Alpha  occ. eigenvalues --  -10.48211 -10.45833 -10.42296 -10.42295 -10.41209
 Alpha  occ. eigenvalues --  -10.41208  -1.42470  -1.36759  -1.23557  -1.12194
 Alpha  occ. eigenvalues --   -1.08127  -0.99541  -0.98086  -0.86084  -0.84409
 Alpha  occ. eigenvalues --   -0.78553  -0.76860  -0.73937  -0.73024  -0.72692
 Alpha  occ. eigenvalues --   -0.70371  -0.69261  -0.66005  -0.65664  -0.64535
 Alpha  occ. eigenvalues --   -0.62910  -0.58955  -0.57438  -0.56931  -0.53618
 Alpha  occ. eigenvalues --   -0.53136  -0.50169  -0.48238  -0.39300
 Alpha virt. eigenvalues --   -0.28708  -0.27712  -0.22641  -0.18244  -0.15322
 Alpha virt. eigenvalues --   -0.12016  -0.11879  -0.11487  -0.09484  -0.08852
 Alpha virt. eigenvalues --   -0.08434  -0.07285  -0.05762  -0.05457  -0.05024

  Beta  occ. eigenvalues --  -19.39964 -19.39963 -14.72277 -14.71386 -14.67425
  Beta  occ. eigenvalues --  -10.48051 -10.45913 -10.42318 -10.42317 -10.41057
  Beta  occ. eigenvalues --  -10.41056  -1.39385  -1.36367  -1.19133  -1.11739
  Beta  occ. eigenvalues --   -1.07060  -0.98386  -0.97793  -0.85155  -0.84228
  Beta  occ. eigenvalues --   -0.77866  -0.73833  -0.73274  -0.71609  -0.69322
  Beta  occ. eigenvalues --   -0.68902  -0.68457  -0.65701  -0.65336  -0.64265
  Beta  occ. eigenvalues --   -0.62359  -0.58035  -0.56831  -0.49924  -0.48582
  Beta  occ. eigenvalues --   -0.48468  -0.47291
  Beta virt. eigenvalues --   -0.36356  -0.32077  -0.27394  -0.25192  -0.22292
  Beta virt. eigenvalues --   -0.16640  -0.15248  -0.11998  -0.11745  -0.11413
  Beta virt. eigenvalues --   -0.09368  -0.08652  -0.08152  -0.06846  -0.05710

 Mulliken atomic charges:
              1
     1  C    0.922539
     2  C    0.536285
     3  C    0.642131
     4  C    0.536308
     5  C    0.922531
     6  C    1.271699
     7  H   -0.791944
     8  H   -0.754161
     9  H   -0.754161
    10  H   -0.791942
    11  N    0.560544
    12  O   -0.517949
    13  O   -0.517966
    14  N    0.431332
    15  N   -0.695246
 Sum of Mulliken atomic charges =   1.00000

 Dipole moment (field-independent basis, Debye):
    X=              5.9586    Y=              0.0000    Z=              0.0002  Tot=              5.9586
 Quadrupole moment (field-independent basis, Debye-Ang):
   XX=            -38.1303   YY=            -46.0870   ZZ=            -60.2427
   XY=             -0.0001   XZ=             -0.0005   YZ=              0.0022

  Exact polarizability: 239.019   0.000 101.603   0.000  -0.002  49.936
 Approx polarizability: 490.429   0.002 206.541  -0.002  -0.012  77.291

                     1                      2                      3
                     A                      A                      A
 Frequencies --    77.5017               107.0455               137.2415
 Red. masses --     9.8513                 7.9419                11.6301
 Frc consts  --     0.0349                 0.0536                 0.1291
 IR Inten    --     1.8903                 0.0000                 3.0653

                     4                      5                      6
                     A                      A                      A
 Frequencies --   211.1235               216.3762               326.0533
 Red. masses --     7.7145                 7.1460                13.3381
 Frc consts  --     0.2026                 0.1971                 0.8355
 IR Inten    --     0.8095                 0.0489                 8.3859

                     7                      8                      9
                     A                      A                      A
 Frequencies --   358.8824               409.8940               467.1518
 Red. masses --     6.6019                 2.9749                 8.4949
 Frc consts  --     0.5010                 0.2945                 1.0923
 IR Inten    --     0.3557                 0.0000                 2.5111

                    10                     11                     12
                     A                      A                      A
 Frequencies --   505.2228               508.6748               553.4337
 Red. masses --    10.9802                 3.9209                 9.5906
 Frc consts  --     1.6513                 0.5977                 1.7307
 IR Inten    --     0.4106                23.4028                 1.1521

                    13                     14                     15
                     A                      A                      A
 Frequencies --   557.8711               636.8339               700.3145
 Red. masses --     6.2651                 7.6472                 8.3984
 Frc consts  --     1.1488                 1.8273                 2.4268
 IR Inten    --     0.0015                 0.0269                 2.3398

                    16                     17                     18
                     A                      A                      A
 Frequencies --   706.7270               804.7484               817.0072
 Red. masses --     3.7839                 1.2525                 7.2788
 Frc consts  --     1.1135                 0.4779                 2.8626
 IR Inten    --     0.6864                 0.0000                 5.5042

                    19                     20                     21
                     A                      A                      A
 Frequencies --   828.6319               938.6003               981.3507
 Red. masses --     1.5206                12.4536                 1.3502
 Frc consts  --     0.6152                 6.4641                 0.7661
 IR Inten    --    63.5011                37.0533                 0.0143

                    22                     23                     24
                     A                      A                      A
 Frequencies --   986.1087               996.1481              1119.5289
 Red. masses --     1.3529                 2.6807                 3.0850
 Frc consts  --     0.7751                 1.5673                 2.2781
 IR Inten    --     0.0000                 0.1333               225.5196

                    25                     26                     27
                     A                      A                      A
 Frequencies --  1147.5997              1174.6917              1222.0022
 Red. masses --     1.2358                 2.9316                 1.7352
 Frc consts  --     0.9589                 2.3834                 1.5267
 IR Inten    --    11.6759                46.3828                70.0052

                    28                     29                     30
                     A                      A                      A
 Frequencies --  1322.0627              1377.1753              1464.6318
 Red. masses --     1.3170                 7.1422                 2.2440
 Frc consts  --     1.3563                 7.9811                 2.8362
 IR Inten    --     0.1129                 9.7642                52.6193

                    31                     32                     33
                     A                      A                      A
 Frequencies --  1481.6699              1522.1217              1555.0256
 Red. masses --     4.0967                 7.4615                 6.8780
 Frc consts  --     5.2990                10.1853                 9.7992
 IR Inten    --    22.6133               417.6813                 5.1535

                    34                     35                     36
                     A                      A                      A
 Frequencies --  1624.6416              2248.2424              3213.1753
 Red. masses --     5.5484                13.9196                 1.0911
 Frc consts  --     8.6285                41.4538                 6.6372
 IR Inten    --   141.4590              1162.3767                13.6055

                    37                     38                     39
                     A                      A                      A
 Frequencies --  3214.4224              3225.0644              3225.2921
 Red. masses --     1.0899                 1.0981                 1.0992
 Frc consts  --     6.6352                 6.7295                 6.7372
 IR Inten    --     2.5980                36.9549                 0.0682

 - Thermochemistry -
 -------------------
 Temperature   298.150 Kelvin.  Pressure   1.00000 Atm.
 Atom     1 has atomic number  6 and mass  12.00000

 Molecular mass:   150.03035 amu.
 Principal axes and moments of inertia in atomic units:
                           1         2         3
     Eigenvalues --   456.759503073.038233529.79771
           X            1.00000   0.00000   0.00000
           Y            0.00000   1.00000   0.00002
           Z            0.00000  -0.00002   1.00000
 This molecule is an asymmetric top.
 Rotational symmetry number  1.
 Warning -- assumption of classical behavior for rotation
           may cause significant error
 Rotational temperatures (Kelvin)      0.18963     0.02819     0.02454
 Rotational constants (GHZ):           3.95118     0.58728     0.51129
 Zero-point vibrational energy     257019.4 (Joules/Mol)
                                   61.42911 (Kcal/Mol)
 Warning -- explicit consideration of  13 degrees of freedom as
           vibrations may cause significant error
 Vibrational temperatures:    111.51   154.01   197.46   303.76   311.32
          (Kelvin)            469.12   516.35   589.75   672.13   726.90
                              731.87   796.27   802.65   916.26  1007.60
                             1016.82  1157.85  1175.49  1192.21  1350.43
                             1411.94  1418.79  1433.23  1610.75  1651.14
                             1690.12  1758.19  1902.15  1981.45  2107.28
                             2131.79  2189.99  2237.33  2337.49  3234.72
                             4623.04  4624.83  4640.14  4640.47

 Zero-point correction=                           0.097894 (Hartree/Particle)
 Thermal correction to Energy=                    0.106936
 Thermal correction to Enthalpy=                  0.107880
 Thermal correction to Gibbs Free Energy=         0.062295
 Sum of electronic and zero-point Energies=           -545.226133
 Sum of electronic and thermal Energies=              -545.217091
 Sum of electronic and thermal Enthalpies=            -545.216146
 Sum of electronic and thermal Free Energies=         -545.261732

                     E (Thermal)             CV                S
                      KCal/Mol        Cal/Mol-Kelvin    Cal/Mol-Kelvin
 Total                   67.103             33.713             95.943
 Electronic               0.000              0.000              2.183
 Translational            0.889              2.981             40.927
 Rotational               0.889              2.981             29.984
 Vibrational             65.326             27.751             22.849
 Vibration     1          0.599              1.964              3.953
 Vibration     2          0.606              1.944              3.322
 Vibration     3          0.614              1.916              2.842
 Vibration     4          0.643              1.824              2.034
 Vibration     5          0.645              1.816              1.989
 Vibration     6          0.710              1.623              1.280
 Vibration     7          0.734              1.557              1.127
 Vibration     8          0.774              1.449              0.927
 Vibration     9          0.824              1.323              0.746
 Vibration    10          0.860              1.238              0.645
 Vibration    11          0.864              1.231              0.637
 Vibration    12          0.909              1.132              0.537
 Vibration    13          0.913              1.122              0.528

 Optimization completed.
    -- Stationary point found.
 Normal termination of Gaussian 09 at Thu Jan 20 21:25:01 2005.
