 Gaussian 09, Revision B.01,
 Gaussian 09:  EM64L-G09RevB.01 12-Aug-2010

 -------------------------------------------------
 #p Temperature=298.15 opt freq UB3LYP/aug-cc-pVDZ
 -------------------------------------------------

 -------------------------------------
 4-NO2-Ph-N2-UB3LYP-aug-cc-pVDZ-Duplet
 -------------------------------------
 Symbolic Z-matrix:
 Charge =  0 Multiplicity = 2

 SCF Done:  E(UB3LYP) =  -545.644202796     A.U. after   26 cycles
 SCF Done:  E(UB3LYP) =  -545.651324337     A.U. after   25 cycles
 SCF Done:  E(UB3LYP) =  -545.654433252     A.U. after   25 cycles
 SCF Done:  E(UB3LYP) =  -545.647811277     A.U. after   26 cycles
 SCF Done:  E(UB3LYP) =  -545.654652884     A.U. after   22 cycles
 SCF Done:  E(UB3LYP) =  -545.655187162     A.U. after   24 cycles
 SCF Done:  E(UB3LYP) =  -545.655221701     A.U. after   23 cycles
 SCF Done:  E(UB3LYP) =  -545.655222442     A.U. after   14 cycles
 Optimization completed.
    -- Stationary point found.
 Normal termination of Gaussian 09 at Tue Mar  6 05:45:17 2018.

 ----------------------------------------------------------------------
 #P Geom=AllCheck Guess=TCheck SCRF=Check GenChk UB3LYP/Aug-CC-pVDZ Fre
 q
 ----------------------------------------------------------------------

 4-NO2-Ph-N2-UB3LYP-aug-cc-pVDZ-Duplet
 -------------------------------------
 Redundant internal coordinates taken from checkpoint file:
 4-NO2-Ph-N2-UB3LYP-aug-cc-pVDZ-Duplet.chk
 Charge =  0 Multiplicity = 2

                         Standard orientation:
 ---------------------------------------------------------------------
 Center     Atomic      Atomic             Coordinates (Angstroms)
 Number     Number       Type             X           Y           Z
 ---------------------------------------------------------------------
      1          6           0        0.327066    1.227628   -0.000022
      2          6           0       -1.052159    1.243298   -0.000166
      3          6           0       -1.756875    0.000000    0.000084
      4          6           0       -1.052161   -1.243297    0.000393
      5          6           0        0.327066   -1.227629    0.000086
      6          6           0        1.018126   -0.000001   -0.000007
      7          1           0        0.895052    2.154556   -0.000206
      8          1           0       -1.605854    2.179884   -0.000190
      9          1           0       -1.605855   -2.179883    0.000480
     10          1           0        0.895047   -2.154560    0.000136
     11          7           0        2.465074   -0.000001   -0.000091
     12          8           0        3.045219    1.092460    0.000344
     13          8           0        3.045221   -1.092458   -0.000475
     14          7           0       -3.097773    0.000001    0.000547
     15          7           0       -4.248484    0.000000   -0.000653
 ---------------------------------------------------------------------

 SCF Done:  E(UB3LYP) =  -545.655222442     A.U. after    2 cycles

 The electronic state is 2-A.
 Alpha  occ. eigenvalues --  -19.17632 -19.17632 -14.56426 -14.50513 -14.46822
 Alpha  occ. eigenvalues --  -10.30313 -10.26281 -10.24476 -10.24475 -10.23653
 Alpha  occ. eigenvalues --  -10.23651  -1.22384  -1.15371  -1.05120  -0.93737
 Alpha  occ. eigenvalues --   -0.87903  -0.80421  -0.79010  -0.67280  -0.66495
 Alpha  occ. eigenvalues --   -0.60632  -0.56391  -0.54481  -0.53853  -0.53460
 Alpha  occ. eigenvalues --   -0.50890  -0.50796  -0.48918  -0.47483  -0.46570
 Alpha  occ. eigenvalues --   -0.45144  -0.41373  -0.39214  -0.32063  -0.32004
 Alpha  occ. eigenvalues --   -0.31517  -0.30953  -0.29395  -0.19710
 Alpha virt. eigenvalues --   -0.10120  -0.09073  -0.05756  -0.02339  -0.00891
 Alpha virt. eigenvalues --   -0.00427   0.00661   0.02355   0.02783   0.03359
 Alpha virt. eigenvalues --    0.04321   0.06307   0.06445   0.06603   0.06895

  Beta  occ. eigenvalues --  -19.17476 -19.17476 -14.56429 -14.50223 -14.45953
  Beta  occ. eigenvalues --  -10.30363 -10.25944 -10.24248 -10.24247 -10.23755
  Beta  occ. eigenvalues --  -10.23753  -1.22188  -1.14302  -1.04825  -0.93200
  Beta  occ. eigenvalues --   -0.87247  -0.80098  -0.78280  -0.66958  -0.66427
  Beta  occ. eigenvalues --   -0.60417  -0.56165  -0.54225  -0.52922  -0.50837
  Beta  occ. eigenvalues --   -0.50566  -0.49349  -0.48721  -0.47403  -0.46236
  Beta  occ. eigenvalues --   -0.44954  -0.40155  -0.39131  -0.31301  -0.31015
  Beta  occ. eigenvalues --   -0.30002  -0.29910  -0.29237
  Beta virt. eigenvalues --   -0.12707  -0.09323  -0.06652  -0.05434  -0.02303
  Beta virt. eigenvalues --   -0.00422   0.00684   0.00929   0.02387   0.02768
  Beta virt. eigenvalues --    0.03491   0.04387   0.06316   0.06559   0.06885

 Mulliken atomic charges:
              1
     1  C    0.974455
     2  C    0.810611
     3  C    0.289394
     4  C    0.810616
     5  C    0.974453
     6  C    0.608016
     7  H   -0.842952
     8  H   -0.798659
     9  H   -0.798661
    10  H   -0.842952
    11  N    0.706668
    12  O   -0.709913
    13  O   -0.709911
    14  N    0.363003
    15  N   -0.834167
 Sum of Mulliken atomic charges =   0.00000

 Dipole moment (field-independent basis, Debye):
    X=             -5.1732    Y=              0.0000    Z=              0.0007  Tot=              5.1732
 Quadrupole moment (field-independent basis, Debye-Ang):
   XX=            -82.7593   YY=            -57.1879   ZZ=            -63.2783
   XY=              0.0000   XZ=             -0.0027   YZ=             -0.0029

  Exact polarizability: 241.085  -0.002 102.346   0.009   0.000  56.068
 Approx polarizability: 452.920   0.000 188.319   0.016   0.007  86.771

                     1                      2                      3
                     A                      A                      A
 Frequencies --    58.1056                77.8156               103.4560
 Red. masses --    12.0631                 7.9691                10.0182
 Frc consts  --     0.0240                 0.0284                 0.0632
 IR Inten    --     4.0136                 0.0000                 0.6249

                     4                      5                      6
                     A                      A                      A
 Frequencies --   140.5884               257.1697               258.0658
 Red. masses --    10.9823                 7.2476                 7.2160
 Frc consts  --     0.1279                 0.2824                 0.2831
 IR Inten    --     4.9759                 0.7499                 0.1539

                     7                      8                      9
                     A                      A                      A
 Frequencies --   331.4397               426.5363               432.3476
 Red. masses --    13.3161                 3.1268                 3.1774
 Frc consts  --     0.8619                 0.3352                 0.3499
 IR Inten    --     1.0338                 0.0000                 7.3735

                    10                     11                     12
                     A                      A                      A
 Frequencies --   512.6080               559.5605               586.9632
 Red. masses --    11.2432                 6.0183                 7.8627
 Frc consts  --     1.7406                 1.1102                 1.5960
 IR Inten    --     1.8315                 0.6321                 7.8820

                    13                     14                     15
                     A                      A                      A
 Frequencies --   642.6863               675.4756               745.0729
 Red. masses --     7.4933                 4.3586                 3.6490
 Frc consts  --     1.8236                 1.1717                 1.1935
 IR Inten    --     0.1511                 3.6350                42.8443

                    16                     17                     18
                     A                      A                      A
 Frequencies --   771.6380               785.4295               812.4891
 Red. masses --     6.9403                 1.2462                 1.8601
 Frc consts  --     2.4348                 0.4530                 0.7235
 IR Inten    --     0.0077                 0.0000                34.5584

                    19                     20                     21
                     A                      A                      A
 Frequencies --   852.8531               977.8416               983.1499
 Red. masses --    10.1005                 1.3491                 1.3215
 Frc consts  --     4.3285                 0.7600                 0.7526
 IR Inten    --     5.1724                 1.3161                 0.0000

                    22                     23                     24
                     A                      A                      A
 Frequencies --   995.8838              1120.7764              1123.7904
 Red. masses --     2.7074                 2.1589                 1.2227
 Frc consts  --     1.5821                 1.5978                 0.9098
 IR Inten    --     4.9952               145.8300                12.6007

                    25                     26                     27
                     A                      A                      A
 Frequencies --  1184.6659              1232.6319              1300.9501
 Red. masses --     1.8834                 3.4378                 1.3051
 Frc consts  --     1.5573                 3.0775                 1.3014
 IR Inten    --     7.4690                 8.0399                 0.2732

                    28                     29                     30
                     A                      A                      A
 Frequencies --  1337.3781              1352.9744              1462.0692
 Red. masses --    13.3595                 7.2490                 4.4207
 Frc consts  --    14.0783                 7.8182                 5.5677
 IR Inten    --  1277.6220                 3.1435                 0.0528

                    31                     32                     33
                     A                      A                      A
 Frequencies --  1470.8817              1522.1991              1583.7400
 Red. masses --     2.1654                 8.7089                 9.8939
 Frc consts  --     2.7602                11.8893                14.6212
 IR Inten    --     0.0094                87.8753               169.3690

                    34                     35                     36
                     A                      A                      A
 Frequencies --  1615.0651              2134.4578              3211.6508
 Red. masses --     5.8923                13.9152                 1.0906
 Frc consts  --     9.0555                37.3521                 6.6280
 IR Inten    --    72.0209               870.6183                 0.8034

                    37                     38                     39
                     A                      A                      A
 Frequencies --  3211.6831              3234.6637              3235.2747
 Red. masses --     1.0900                 1.0940                 1.0949
 Frc consts  --     6.6243                 6.7440                 6.7522
 IR Inten    --     0.7424                 1.8611                 6.3403

 - Thermochemistry -
 -------------------
 Temperature   298.150 Kelvin.  Pressure   1.00000 Atm.
 Atom     1 has atomic number  6 and mass  12.00000

 Molecular mass:   150.03035 amu.
 Principal axes and moments of inertia in atomic units:
                           1         2         3
     Eigenvalues --   465.604433050.709073516.31337
           X            1.00000   0.00000   0.00000
           Y            0.00000   1.00000  -0.00002
           Z            0.00000   0.00002   1.00000
 This molecule is an asymmetric top.
 Rotational symmetry number  1.
 Warning -- assumption of classical behavior for rotation
           may cause significant error
 Rotational temperatures (Kelvin)      0.18602     0.02839     0.02463
 Rotational constants (GHZ):           3.87613     0.59158     0.51325
 Zero-point vibrational energy     259123.3 (Joules/Mol)
                                   61.93195 (Kcal/Mol)
 Warning -- explicit consideration of  12 degrees of freedom as
           vibrations may cause significant error
 Vibrational temperatures:     83.60   111.96   148.85   202.28   370.01
          (Kelvin)            371.30   476.87   613.69   622.05   737.53
                              805.08   844.51   924.68   971.86  1071.99
                             1110.21  1130.06  1168.99  1227.06  1406.89
                             1414.53  1432.85  1612.55  1616.88  1704.47
                             1773.48  1871.77  1924.19  1946.63  2103.59
                             2116.27  2190.10  2278.65  2323.72  3071.00
                             4620.84  4620.89  4653.95  4654.83

 Zero-point correction=                           0.098695 (Hartree/Particle)
 Thermal correction to Energy=                    0.107888
 Thermal correction to Enthalpy=                  0.108832
 Thermal correction to Gibbs Free Energy=         0.062597
 Sum of electronic and zero-point Energies=           -545.556528
 Sum of electronic and thermal Energies=              -545.547335
 Sum of electronic and thermal Enthalpies=            -545.546390
 Sum of electronic and thermal Free Energies=         -545.592626

                     E (Thermal)             CV                S
                      KCal/Mol        Cal/Mol-Kelvin    Cal/Mol-Kelvin
 Total                   67.701             33.077             97.311
 Electronic               0.000              0.000              1.377
 Translational            0.889              2.981             40.927
 Rotational               0.889              2.981             29.992
 Vibrational             65.923             27.115             25.014
 Vibration     1          0.596              1.974              4.521
 Vibration     2          0.599              1.964              3.945
 Vibration     3          0.605              1.946              3.388
 Vibration     4          0.615              1.913              2.796
 Vibration     5          0.667              1.751              1.681
 Vibration     6          0.667              1.749              1.675
 Vibration     7          0.714              1.613              1.253
 Vibration     8          0.788              1.412              0.870
 Vibration     9          0.793              1.400              0.851
 Vibration    10          0.868              1.222              0.627
 Vibration    11          0.915              1.119              0.525
 Vibration    12          0.944              1.060              0.473

 Optimization completed.
    -- Stationary point found.
 Normal termination of Gaussian 09 at Tue Mar  6 06:06:32 2018.
