 Gaussian 09, Revision B.01,
 Gaussian 09:  EM64L-G09RevB.01 12-Aug-2010

 -------------------------------------------------
 #p Temperature=298.15 opt freq UB3LYP/aug-cc-pVDZ
 -------------------------------------------------

 ------------------------------------
 4-NO2-Ph+-UB3LYP-aug-cc-pVDZ-Singlet
 ------------------------------------
 Symbolic Z-matrix:
 Charge =  1 Multiplicity = 1

 SCF Done:  E(UB3LYP) =  -435.753842568     A.U. after   23 cycles
 SCF Done:  E(UB3LYP) =  -435.780007497     A.U. after   18 cycles
 SCF Done:  E(UB3LYP) =  -435.790017884     A.U. after   17 cycles
 SCF Done:  E(UB3LYP) =  -435.789522999     A.U. after   17 cycles
 SCF Done:  E(UB3LYP) =  -435.790425021     A.U. after   15 cycles
 SCF Done:  E(UB3LYP) =  -435.790784957     A.U. after   17 cycles
 SCF Done:  E(UB3LYP) =  -435.791885267     A.U. after   13 cycles
 SCF Done:  E(UB3LYP) =  -435.792045032     A.U. after   17 cycles
 SCF Done:  E(UB3LYP) =  -435.792062550     A.U. after   16 cycles
 SCF Done:  E(UB3LYP) =  -435.792063746     A.U. after   10 cycles
 SCF Done:  E(UB3LYP) =  -435.792064077     A.U. after   22 cycles
 SCF Done:  E(UB3LYP) =  -435.792064151     A.U. after   10 cycles
 Optimization completed.
    -- Stationary point found.
 Normal termination of Gaussian 09 at Tue Mar  6 04:16:24 2018.

 ----------------------------------------------------------------------
 #P Geom=AllCheck Guess=TCheck SCRF=Check GenChk UB3LYP/Aug-CC-pVDZ Fre
 q
 ----------------------------------------------------------------------

 4-NO2-Ph+-UB3LYP-aug-cc-pVDZ-Singlet
 ------------------------------------
 Redundant internal coordinates taken from checkpoint file:
 4-NO2-Ph+-UB3LYP-aug-cc-pVDZ-Singlet.chk
 Charge =  1 Multiplicity = 1

                         Standard orientation:
 ---------------------------------------------------------------------
 Center     Atomic      Atomic             Coordinates (Angstroms)
 Number     Number       Type             X           Y           Z
 ---------------------------------------------------------------------
      1          6           0        0.496694    1.230442   -0.000030
      2          6           0        1.925461    1.282083    0.000064
      3          6           0        2.285522    0.000003   -0.000004
      4          6           0        1.925468   -1.282079   -0.000055
      5          6           0        0.496700   -1.230446    0.000025
      6          6           0       -0.164772   -0.000002   -0.000005
      7          1           0       -0.055033    2.173412    0.000206
      8          1           0        2.519062    2.195053    0.000717
      9          1           0        2.519073   -2.195046   -0.000697
     10          1           0       -0.055022   -2.173419   -0.000216
     11          7           0       -1.655318   -0.000001   -0.000014
     12          8           0       -2.195703    1.094218   -0.000252
     13          8           0       -2.195708   -1.094217    0.000267
 ---------------------------------------------------------------------

 SCF Done:  E(UB3LYP) =  -435.792064151     A.U. after    1 cycles

 The electronic state is 1-A.
 Alpha  occ. eigenvalues --  -19.35695 -19.35695 -14.74850 -10.55306 -10.47412
 Alpha  occ. eigenvalues --  -10.47411 -10.47002 -10.46264 -10.46260  -1.41065
 Alpha  occ. eigenvalues --   -1.24144  -1.15446  -1.03718  -1.02989  -0.89839
 Alpha  occ. eigenvalues --   -0.87845  -0.82325  -0.75257  -0.74192  -0.71469
 Alpha  occ. eigenvalues --   -0.71015  -0.69782  -0.67940  -0.67409  -0.64475
 Alpha  occ. eigenvalues --   -0.61594  -0.51726  -0.51508  -0.48581  -0.48581
 Alpha  occ. eigenvalues --   -0.47245
 Alpha virt. eigenvalues --   -0.37581  -0.28215  -0.27219  -0.21198  -0.16097
 Alpha virt. eigenvalues --   -0.13234  -0.12780  -0.11639  -0.10773  -0.09449
 Alpha virt. eigenvalues --   -0.09413  -0.08690  -0.06680  -0.06263  -0.05384

  Beta  occ. eigenvalues --  -19.35695 -19.35695 -14.74850 -10.55306 -10.47412
  Beta  occ. eigenvalues --  -10.47411 -10.47002 -10.46264 -10.46260  -1.41065
  Beta  occ. eigenvalues --   -1.24144  -1.15446  -1.03718  -1.02989  -0.89839
  Beta  occ. eigenvalues --   -0.87845  -0.82325  -0.75257  -0.74192  -0.71469
  Beta  occ. eigenvalues --   -0.71015  -0.69782  -0.67940  -0.67409  -0.64475
  Beta  occ. eigenvalues --   -0.61594  -0.51726  -0.51508  -0.48581  -0.48581
  Beta  occ. eigenvalues --   -0.47245
  Beta virt. eigenvalues --   -0.37581  -0.28215  -0.27219  -0.21198  -0.16097
  Beta virt. eigenvalues --   -0.13234  -0.12780  -0.11639  -0.10773  -0.09449
  Beta virt. eigenvalues --   -0.09413  -0.08690  -0.06680  -0.06263  -0.05384

 Mulliken atomic charges:
              1
     1  C    1.388077
     2  C    0.376638
     3  C   -0.106258
     4  C    0.376640
     5  C    1.388084
     6  C    0.750661
     7  H   -0.744279
     8  H   -0.597645
     9  H   -0.597646
    10  H   -0.744279
    11  N    0.716531
    12  O   -0.603262
    13  O   -0.603262
 Sum of Mulliken atomic charges =   1.00000

 Dipole moment (field-independent basis, Debye):
    X=              9.6925    Y=              0.0000    Z=              0.0000  Tot=              9.6925
 Quadrupole moment (field-independent basis, Debye-Ang):
   XX=            -31.9420   YY=            -32.4276   ZZ=            -49.3463
   XY=              0.0000   XZ=              0.0001   YZ=              0.0056

  Exact polarizability:  96.621   0.000  92.180   0.000  -0.001  41.563
 Approx polarizability: 160.267   0.000 199.236   0.000  -0.011  64.237

                     1                      2                      3
                     A                      A                      A
 Frequencies --    57.9244               190.1839               218.8551
 Red. masses --     8.3398                 6.6687                 6.2515
 Frc consts  --     0.0165                 0.1421                 0.1764
 IR Inten    --     0.0000                 0.3183                 0.0217

                     4                      5                      6
                     A                      A                      A
 Frequencies --   386.0827               395.0007               400.8782
 Red. masses --    10.2877                 4.1032                 1.8709
 Frc consts  --     0.9035                 0.3772                 0.1771
 IR Inten    --     7.7026                 9.6420                 0.0003

                     7                      8                      9
                     A                      A                      A
 Frequencies --   426.3368               475.2692               517.9854
 Red. masses --     6.9747                 1.7184                 8.0551
 Frc consts  --     0.7469                 0.2287                 1.2734
 IR Inten    --    19.7835                 0.0001                 2.7878

                    10                     11                     12
                     A                      A                      A
 Frequencies --   557.2470               692.9965               704.6807
 Red. masses --     3.1213                 5.3072                 1.9564
 Frc consts  --     0.5711                 1.5017                 0.5724
 IR Inten    --     3.6121                 7.6357                96.7880

                    13                     14                     15
                     A                      A                      A
 Frequencies --   794.1051               829.8063               928.3228
 Red. masses --     2.4080                 8.0122                 1.6720
 Frc consts  --     0.8947                 3.2506                 0.8490
 IR Inten    --    13.8624                40.3019                 5.6019

                    16                     17                     18
                     A                      A                      A
 Frequencies --   937.0546               944.3567              1019.8603
 Red. masses --     6.4558                 1.3007                 1.7408
 Frc consts  --     3.3398                 0.6834                 1.0668
 IR Inten    --     0.0219                 0.0000                37.3523

                    19                     20                     21
                     A                      A                      A
 Frequencies --  1024.9774              1100.9882              1131.9818
 Red. masses --     1.2536                 1.2261                 6.0902
 Frc consts  --     0.7760                 0.8757                 4.5979
 IR Inten    --     9.8934                 2.6359                 0.3942

                    22                     23                     24
                     A                      A                      A
 Frequencies --  1138.5747              1228.3552              1355.0041
 Red. masses --     4.0784                 1.2248                 3.3741
 Frc consts  --     3.1151                 1.0889                 3.6500
 IR Inten    --    64.4685                12.0991                16.1589

                    25                     26                     27
                     A                      A                      A
 Frequencies --  1373.5156              1461.3134              1498.2532
 Red. masses --    13.9499                 8.0462                 4.0544
 Frc consts  --    15.5055                10.1234                 5.3622
 IR Inten    --   143.1221                 3.0786                 2.1384

                    28                     29                     30
                     A                      A                      A
 Frequencies --  1647.5161              1787.3808              3181.8148
 Red. masses --    14.1596                 8.7663                 1.0882
 Frc consts  --    22.6443                16.5007                 6.4909
 IR Inten    --   211.6032                37.9560                48.5915

                    31                     32                     33
                     A                      A                      A
 Frequencies --  3185.4104              3220.6022              3225.5171
 Red. masses --     1.0918                 1.0988                 1.1005
 Frc consts  --     6.5274                 6.7147                 6.7457
 IR Inten    --    88.4123               231.2813                53.4560

 - Thermochemistry -
 -------------------
 Temperature   298.150 Kelvin.  Pressure   1.00000 Atm.
 Atom     1 has atomic number  6 and mass  12.00000

 Molecular mass:   122.02420 amu.
 Principal axes and moments of inertia in atomic units:
                           1         2         3
     Eigenvalues --   476.096041296.677841772.77386
           X            1.00000   0.00000   0.00000
           Y            0.00000   1.00000   0.00003
           Z            0.00000  -0.00003   1.00000
 This molecule is an asymmetric top.
 Rotational symmetry number  1.
 Warning -- assumption of classical behavior for rotation
           may cause significant error
 Rotational temperatures (Kelvin)      0.18193     0.06680     0.04886
 Rotational constants (GHZ):           3.79071     1.39182     1.01803
 Zero-point vibrational energy     227518.7 (Joules/Mol)
                                   54.37827 (Kcal/Mol)
 Warning -- explicit consideration of  10 degrees of freedom as
           vibrations may cause significant error
 Vibrational temperatures:     83.34   273.63   314.88   555.49   568.32
          (Kelvin)            576.77   613.40   683.81   745.26   801.75
                              997.07  1013.88  1142.54  1193.90  1335.65
                             1348.21  1358.72  1467.35  1474.71  1584.07
                             1628.67  1638.15  1767.33  1949.55  1976.18
                             2102.50  2155.65  2370.41  2571.64  4577.92
                             4583.09  4633.72  4640.79

 Zero-point correction=                           0.086657 (Hartree/Particle)
 Thermal correction to Energy=                    0.093987
 Thermal correction to Enthalpy=                  0.094931
 Thermal correction to Gibbs Free Energy=         0.054526
 Sum of electronic and zero-point Energies=           -435.705407
 Sum of electronic and thermal Energies=              -435.698078
 Sum of electronic and thermal Enthalpies=            -435.697133
 Sum of electronic and thermal Free Energies=         -435.737538

                     E (Thermal)             CV                S
                      KCal/Mol        Cal/Mol-Kelvin    Cal/Mol-Kelvin
 Total                   58.977             27.531             85.038
 Electronic               0.000              0.000              0.000
 Translational            0.889              2.981             40.311
 Rotational               0.889              2.981             28.483
 Vibrational             57.200             21.570             16.244
 Vibration     1          0.596              1.974              4.527
 Vibration     2          0.634              1.853              2.226
 Vibration     3          0.647              1.812              1.969
 Vibration     4          0.755              1.500              1.015
 Vibration     5          0.762              1.481              0.981
 Vibration     6          0.767              1.468              0.959
 Vibration     7          0.788              1.413              0.871
 Vibration     8          0.832              1.305              0.723
 Vibration     9          0.873              1.210              0.615
 Vibration    10          0.913              1.124              0.529

 Optimization completed.
    -- Stationary point found.
 Normal termination of Gaussian 09 at Tue Mar  6 04:26:31 2018.
