 Gaussian 09, Revision B.01,
 Gaussian 09:  EM64L-G09RevB.01 12-Aug-2010

 -------------------------------------------------
 #p Temperature=298.15 opt freq UB3LYP/aug-cc-pVDZ
 -------------------------------------------------

 ----------------------------------
 4-NO2-Ph-UB3LYP-aug-cc-pVDZ-Duplet
 ----------------------------------
 Symbolic Z-matrix:
 Charge =  0 Multiplicity = 2

 SCF Done:  E(UB3LYP) =  -436.118882322     A.U. after   18 cycles
 SCF Done:  E(UB3LYP) =  -436.122683994     A.U. after   19 cycles
 SCF Done:  E(UB3LYP) =  -436.124033823     A.U. after   19 cycles
 SCF Done:  E(UB3LYP) =  -436.119392045     A.U. after   18 cycles
 SCF Done:  E(UB3LYP) =  -436.124395487     A.U. after   19 cycles
 SCF Done:  E(UB3LYP) =  -436.124930534     A.U. after   18 cycles
 SCF Done:  E(UB3LYP) =  -436.125036124     A.U. after   18 cycles
 SCF Done:  E(UB3LYP) =  -436.125040261     A.U. after   18 cycles
 Optimization completed.
    -- Stationary point found.
 Normal termination of Gaussian 09 at Tue Mar  6 06:26:12 2018.

 ----------------------------------------------------------------------
 #P Geom=AllCheck Guess=TCheck SCRF=Check GenChk UB3LYP/Aug-CC-pVDZ Fre
 q
 ----------------------------------------------------------------------

 4-NO2-Ph-UB3LYP-aug-cc-pVDZ-Duplet
 ----------------------------------
 Redundant internal coordinates taken from checkpoint file:
 4-NO2-Ph-UB3LYP-aug-cc-pVDZ-Duplet.chk
 Charge =  0 Multiplicity = 2

                         Standard orientation:
 ---------------------------------------------------------------------
 Center     Atomic      Atomic             Coordinates (Angstroms)
 Number     Number       Type             X           Y           Z
 ---------------------------------------------------------------------
      1          6           0        0.488146   -1.228042    0.000202
      2          6           0        1.890679   -1.232042   -0.000186
      3          6           0        2.514747    0.000076   -0.000065
      4          6           0        1.890512    1.232103    0.000135
      5          6           0        0.487981    1.227903   -0.000095
      6          6           0       -0.180339   -0.000103    0.000074
      7          1           0       -0.083256   -2.153651    0.000310
      8          1           0        2.445045   -2.170234   -0.000089
      9          1           0        2.444740    2.170376   -0.000031
     10          1           0       -0.083564    2.153444   -0.000141
     11          7           0       -1.657407   -0.000040    0.000168
     12          8           0       -2.229673   -1.087217   -0.000139
     13          8           0       -2.229262    1.087339   -0.000062
 ---------------------------------------------------------------------

 SCF Done:  E(UB3LYP) =  -436.125040261     A.U. after    2 cycles

 The electronic state is 2-A.
 Alpha  occ. eigenvalues --  -19.19392 -19.19391 -14.58236 -10.26811 -10.25314
 Alpha  occ. eigenvalues --  -10.24019 -10.24016 -10.23573 -10.23571  -1.24420
 Alpha  occ. eigenvalues --   -1.07128  -0.91359  -0.82584  -0.79707  -0.71184
 Alpha  occ. eigenvalues --   -0.65467  -0.61252  -0.57893  -0.54850  -0.53212
 Alpha  occ. eigenvalues --   -0.49406  -0.49210  -0.48619  -0.47037  -0.41241
 Alpha  occ. eigenvalues --   -0.39816  -0.32939  -0.32734  -0.30946  -0.30308
 Alpha  occ. eigenvalues --   -0.29780  -0.28202
 Alpha virt. eigenvalues --   -0.10999  -0.05508  -0.02229  -0.01532  -0.00007
 Alpha virt. eigenvalues --    0.01101   0.02926   0.03222   0.04200   0.05389
 Alpha virt. eigenvalues --    0.07047   0.07227   0.07523   0.08337   0.08832

  Beta  occ. eigenvalues --  -19.19403 -19.19402 -14.58225 -10.26867 -10.23890
  Beta  occ. eigenvalues --  -10.23887 -10.23763 -10.23583 -10.23573  -1.24426
  Beta  occ. eigenvalues --   -1.07147  -0.90773  -0.81757  -0.79369  -0.70140
  Beta  occ. eigenvalues --   -0.65126  -0.60598  -0.57751  -0.54883  -0.53103
  Beta  occ. eigenvalues --   -0.48838  -0.48520  -0.47094  -0.46649  -0.40902
  Beta  occ. eigenvalues --   -0.39370  -0.33016  -0.32719  -0.30944  -0.29816
  Beta  occ. eigenvalues --   -0.29596
  Beta virt. eigenvalues --   -0.12122  -0.10654  -0.05549  -0.01497  -0.01474
  Beta virt. eigenvalues --   -0.00007   0.01276   0.02917   0.03563   0.04206
  Beta virt. eigenvalues --    0.05593   0.07019   0.07444   0.07603   0.08345

 Mulliken atomic charges:
              1
     1  C    1.184181
     2  C    0.677494
     3  C   -1.126403
     4  C    0.677335
     5  C    1.183836
     6  C    0.832548
     7  H   -0.804760
     8  H   -0.574292
     9  H   -0.574269
    10  H   -0.804775
    11  N    0.678450
    12  O   -0.674713
    13  O   -0.674633
 Sum of Mulliken atomic charges =   0.00000

 Dipole moment (field-independent basis, Debye):
    X=              3.8372    Y=             -0.0002    Z=              0.0005  Tot=              3.8372
 Quadrupole moment (field-independent basis, Debye-Ang):
   XX=            -59.6277   YY=            -46.1968   ZZ=            -52.4259
   XY=             -0.0006   XZ=             -0.0013   YZ=             -0.0010

  Exact polarizability: 113.070   0.001  98.127   0.000   0.000  48.976
 Approx polarizability: 177.346   0.005 189.534  -0.001   0.002  75.357

                     1                      2                      3
                     A                      A                      A
 Frequencies --    56.3256               179.9652               256.5700
 Red. masses --     8.0452                 7.3404                 6.7191
 Frc consts  --     0.0150                 0.1401                 0.2606
 IR Inten    --     0.0000                 3.2236                 1.3140

                     4                      5                      6
                     A                      A                      A
 Frequencies --   396.8520               406.1165               441.2205
 Red. masses --    10.4234                 2.8327                 3.7308
 Frc consts  --     0.9672                 0.2753                 0.4279
 IR Inten    --     0.3964                 0.0000                 7.5700

                     7                      8                      9
                     A                      A                      A
 Frequencies --   524.2414               601.5833               665.5445
 Red. masses --     8.2386                 6.9582                 4.2467
 Frc consts  --     1.3340                 1.4837                 1.1083
 IR Inten    --     2.0733                 1.0094                 2.3809

                    10                     11                     12
                     A                      A                      A
 Frequencies --   683.1987               740.6300               805.4930
 Red. masses --     7.5441                 2.4080                 1.2445
 Frc consts  --     2.0747                 0.7782                 0.4757
 IR Inten    --    15.7231                55.3790                 0.0000

                    13                     14                     15
                     A                      A                      A
 Frequencies --   830.8691               854.0870               970.4034
 Red. masses --     2.1204                10.2482                 1.3988
 Frc consts  --     0.8625                 4.4045                 0.7761
 IR Inten    --    19.8631                25.7068                 1.1872

                    16                     17                     18
                     A                      A                      A
 Frequencies --   975.4131               990.9712              1038.8964
 Red. masses --     1.3829                 7.1746                 2.0211
 Frc consts  --     0.7752                 4.1512                 1.2852
 IR Inten    --     0.0001                 0.2772                16.1246

                    19                     20                     21
                     A                      A                      A
 Frequencies --  1097.4187              1113.7146              1164.1921
 Red. masses --     1.2916                 3.4250                 1.2730
 Frc consts  --     0.9165                 2.5030                 1.0166
 IR Inten    --     5.7174                28.4001                 1.0437

                    22                     23                     24
                     A                      A                      A
 Frequencies --  1283.6087              1343.3611              1382.4423
 Red. masses --     1.2407                 4.7905                14.2457
 Frc consts  --     1.2044                 5.0935                16.0408
 IR Inten    --     0.2764                16.1436               281.9104

                    25                     26                     27
                     A                      A                      A
 Frequencies --  1406.6631              1457.3499              1575.2413
 Red. masses --     4.9561                 2.2745                 5.5567
 Frc consts  --     5.7779                 2.8462                 8.1238
 IR Inten    --     2.2334                10.8958                 4.4569

                    28                     29                     30
                     A                      A                      A
 Frequencies --  1591.4149              1648.3013              3193.2040
 Red. masses --    12.6251                 9.0685                 1.0884
 Frc consts  --    18.8388                14.5165                 6.5387
 IR Inten    --   194.9850                64.6911                 1.2742

                    31                     32                     33
                     A                      A                      A
 Frequencies --  3193.9520              3227.3706              3227.5402
 Red. masses --     1.0905                 1.0935                 1.0929
 Frc consts  --     6.5545                 6.7106                 6.7077
 IR Inten    --     0.0001                 3.9399                 2.1954

 - Thermochemistry -
 -------------------
 Temperature   298.150 Kelvin.  Pressure   1.00000 Atm.
 Atom     1 has atomic number  6 and mass  12.00000

 Molecular mass:   122.02420 amu.
 Principal axes and moments of inertia in atomic units:
                           1         2         3
     Eigenvalues --   461.673931346.776271808.45019
           X            1.00000   0.00000   0.00000
           Y            0.00000   1.00000  -0.00001
           Z            0.00000   0.00001   1.00000
 This molecule is an asymmetric top.
 Rotational symmetry number  1.
 Warning -- assumption of classical behavior for rotation
           may cause significant error
 Rotational temperatures (Kelvin)      0.18761     0.06431     0.04789
 Rotational constants (GHZ):           3.90913     1.34005     0.99795
 Zero-point vibrational energy     235210.7 (Joules/Mol)
                                   56.21670 (Kcal/Mol)
 Warning -- explicit consideration of   8 degrees of freedom as
           vibrations may cause significant error
 Vibrational temperatures:     81.04   258.93   369.15   570.98   584.31
          (Kelvin)            634.82   754.27   865.54   957.57   982.97
                             1065.60  1158.92  1195.43  1228.84  1396.19
                             1403.40  1425.78  1494.74  1578.94  1602.38
                             1675.01  1846.82  1932.79  1989.02  2023.87
                             2096.80  2266.42  2289.69  2371.53  4594.30
                             4595.38  4643.46  4643.70

 Zero-point correction=                           0.089587 (Hartree/Particle)
 Thermal correction to Energy=                    0.096391
 Thermal correction to Enthalpy=                  0.097336
 Thermal correction to Gibbs Free Energy=         0.057067
 Sum of electronic and zero-point Energies=           -436.035453
 Sum of electronic and thermal Energies=              -436.028649
 Sum of electronic and thermal Enthalpies=            -436.027705
 Sum of electronic and thermal Free Energies=         -436.067973

                     E (Thermal)             CV                S
                      KCal/Mol        Cal/Mol-Kelvin    Cal/Mol-Kelvin
 Total                   60.487             25.477             84.752
 Electronic               0.000              0.000              1.377
 Translational            0.889              2.981             40.311
 Rotational               0.889              2.981             28.510
 Vibrational             58.709             19.516             14.553
 Vibration     1          0.596              1.975              4.582
 Vibration     2          0.629              1.867              2.329
 Vibration     3          0.666              1.752              1.685
 Vibration     4          0.763              1.477              0.974
 Vibration     5          0.771              1.457              0.940
 Vibration     6          0.801              1.380              0.823
 Vibration     7          0.879              1.196              0.600
 Vibration     8          0.960              1.028              0.447

 Optimization completed.
    -- Stationary point found.
 Normal termination of Gaussian 09 at Tue Mar  6 06:37:14 2018.
