 Gaussian 09, Revision B.01,
 Gaussian 09:  EM64L-G09RevB.01 12-Aug-2010

 -------------------------------------------------
 #p Temperature=298.15 opt freq UB3LYP/aug-cc-pVDZ
 -------------------------------------------------

 ---------------------------------------
 4-NO2-Ph-N2+-UB3LYP-aug-cc-pVDZ-Singlet
 ---------------------------------------
 Symbolic Z-matrix:
 Charge =  1 Multiplicity = 1

 SCF Done:  E(UB3LYP) =  -545.390608790     A.U. after   19 cycles
 SCF Done:  E(UB3LYP) =  -545.393660818     A.U. after   18 cycles
 SCF Done:  E(UB3LYP) =  -545.393981712     A.U. after   18 cycles
 SCF Done:  E(UB3LYP) =  -545.391571368     A.U. after   17 cycles
 SCF Done:  E(UB3LYP) =  -545.394274989     A.U. after   17 cycles
 SCF Done:  E(UB3LYP) =  -545.394801036     A.U. after   15 cycles
 SCF Done:  E(UB3LYP) =  -545.395107161     A.U. after   17 cycles
 SCF Done:  E(UB3LYP) =  -545.395162588     A.U. after   17 cycles
 SCF Done:  E(UB3LYP) =  -545.395175723     A.U. after   12 cycles
 SCF Done:  E(UB3LYP) =  -545.395177993     A.U. after   22 cycles
 SCF Done:  E(UB3LYP) =  -545.395178041     A.U. after    9 cycles
 Optimization completed.
    -- Stationary point found.
 Normal termination of Gaussian 09 at Tue Mar  6 03:30:07 2018.

 ----------------------------------------------------------------------
 #P Geom=AllCheck Guess=TCheck SCRF=Check GenChk UB3LYP/Aug-CC-pVDZ Fre
 q
 ----------------------------------------------------------------------

 4-NO2-Ph-N2+-UB3LYP-aug-cc-pVDZ-Singlet
 ---------------------------------------
 Redundant internal coordinates taken from checkpoint file:
 4-NO2-Ph-N2+-UB3LYP-aug-cc-pVDZ-Singlet.chk
 Charge =  1 Multiplicity = 1

                         Standard orientation:
 ---------------------------------------------------------------------
 Center     Atomic      Atomic             Coordinates (Angstroms)
 Number     Number       Type             X           Y           Z
 ---------------------------------------------------------------------
      1          6           0       -0.327998   -1.232316   -0.000122
      2          6           0        1.061728   -1.248035   -0.000151
      3          6           0        1.716524    0.000008    0.000002
      4          6           0        1.061718    1.248048    0.000152
      5          6           0       -0.328006    1.232321    0.000122
      6          6           0       -0.987586    0.000000    0.000003
      7          1           0       -0.905114   -2.154936   -0.000198
      8          1           0        1.622794   -2.181096   -0.000313
      9          1           0        1.622776    2.181114    0.000317
     10          1           0       -0.905129    2.154937    0.000201
     11          7           0       -2.485789   -0.000005    0.000000
     12          8           0       -3.029574   -1.092886    0.000360
     13          8           0       -3.029589    1.092872   -0.000363
     14          7           0        3.105171    0.000014    0.000001
     15          7           0        4.217716   -0.000019   -0.000003
 ---------------------------------------------------------------------

 SCF Done:  E(UB3LYP) =  -545.395178041     A.U. after    2 cycles

 The electronic state is 1-A.
 Alpha  occ. eigenvalues --  -19.34191 -19.34191 -14.74901 -14.73106 -14.71536
 Alpha  occ. eigenvalues --  -10.50160 -10.45466 -10.43767 -10.43766 -10.41494
 Alpha  occ. eigenvalues --  -10.41492  -1.40457  -1.39465  -1.22520  -1.13548
 Alpha  occ. eigenvalues --   -1.06130  -0.98780  -0.95937  -0.85321  -0.84613
 Alpha  occ. eigenvalues --   -0.78528  -0.75355  -0.74943  -0.72944  -0.71556
 Alpha  occ. eigenvalues --   -0.69772  -0.68656  -0.66749  -0.66126  -0.65280
 Alpha  occ. eigenvalues --   -0.62743  -0.59865  -0.57664  -0.49755  -0.48574
 Alpha  occ. eigenvalues --   -0.47026  -0.46996  -0.45681
 Alpha virt. eigenvalues --   -0.32409  -0.30148  -0.24353  -0.23466  -0.18102
 Alpha virt. eigenvalues --   -0.16596  -0.12586  -0.12468  -0.11958  -0.10307
 Alpha virt. eigenvalues --   -0.08637  -0.08376  -0.07126  -0.06315  -0.06136

  Beta  occ. eigenvalues --  -19.34191 -19.34191 -14.74901 -14.73106 -14.71536
  Beta  occ. eigenvalues --  -10.50160 -10.45466 -10.43767 -10.43766 -10.41494
  Beta  occ. eigenvalues --  -10.41492  -1.40457  -1.39465  -1.22520  -1.13548
  Beta  occ. eigenvalues --   -1.06130  -0.98780  -0.95937  -0.85321  -0.84613
  Beta  occ. eigenvalues --   -0.78528  -0.75355  -0.74943  -0.72944  -0.71556
  Beta  occ. eigenvalues --   -0.69772  -0.68656  -0.66749  -0.66126  -0.65280
  Beta  occ. eigenvalues --   -0.62743  -0.59865  -0.57664  -0.49755  -0.48574
  Beta  occ. eigenvalues --   -0.47026  -0.46996  -0.45681
  Beta virt. eigenvalues --   -0.32409  -0.30148  -0.24353  -0.23466  -0.18102
  Beta virt. eigenvalues --   -0.16596  -0.12586  -0.12468  -0.11958  -0.10307
  Beta virt. eigenvalues --   -0.08637  -0.08376  -0.07126  -0.06315  -0.06136

 Mulliken atomic charges:
              1
     1  C    1.036220
     2  C    0.630488
     3  C    0.765672
     4  C    0.630470
     5  C    1.036213
     6  C    0.664883
     7  H   -0.787733
     8  H   -0.746270
     9  H   -0.746265
    10  H   -0.787731
    11  N    0.700954
    12  O   -0.606468
    13  O   -0.606471
    14  N    0.482453
    15  N   -0.666415
 Sum of Mulliken atomic charges =   1.00000

 Dipole moment (field-independent basis, Debye):
    X=              9.7120    Y=              0.0000    Z=              0.0000  Tot=              9.7120
 Quadrupole moment (field-independent basis, Debye-Ang):
   XX=            -38.7900   YY=            -47.3699   ZZ=            -59.0870
   XY=              0.0000   XZ=              0.0000   YZ=              0.0031

  Exact polarizability: 160.872  -0.001  96.958   0.001   0.001  48.816
 Approx polarizability: 276.621  -0.001 195.359   0.000  -0.007  77.095

                     1                      2                      3
                     A                      A                      A
 Frequencies --    41.9109                81.3336               144.5218
 Red. masses --     8.2243                10.2482                11.0545
 Frc consts  --     0.0085                 0.0399                 0.1360
 IR Inten    --     0.0000                 2.4751                 3.1325

                     4                      5                      6
                     A                      A                      A
 Frequencies --   222.1611               258.7461               326.5826
 Red. masses --     7.7517                 7.0273                13.4456
 Frc consts  --     0.2254                 0.2772                 0.8449
 IR Inten    --     0.7133                 0.6188                10.4033

                     7                      8                      9
                     A                      A                      A
 Frequencies --   402.5809               432.0069               501.1271
 Red. masses --     2.8558                 4.8755                11.1173
 Frc consts  --     0.2727                 0.5361                 1.6449
 IR Inten    --     0.0000                 0.5811                 0.4578

                    10                     11                     12
                     A                      A                      A
 Frequencies --   545.5211               553.7286               566.7206
 Red. masses --     5.8198                 6.2839                 8.0200
 Frc consts  --     1.0204                 1.1352                 1.5176
 IR Inten    --    10.2409                 0.2803                 0.5439

                    13                     14                     15
                     A                      A                      A
 Frequencies --   640.3331               668.6797               762.1881
 Red. masses --     7.5454                 4.0044                 3.3864
 Frc consts  --     1.8228                 1.0549                 1.1591
 IR Inten    --     0.0016                15.2546                23.3132

                    16                     17                     18
                     A                      A                      A
 Frequencies --   771.3334               826.6467               860.6959
 Red. masses --     7.3555                 1.2520                10.4928
 Frc consts  --     2.5784                 0.5041                 4.5797
 IR Inten    --    19.8932                 0.0000                57.4859

                    19                     20                     21
                     A                      A                      A
 Frequencies --   879.1398              1001.1746              1007.0184
 Red. masses --     1.7980                 1.4028                 1.3615
 Frc consts  --     0.8188                 0.8284                 0.8135
 IR Inten    --    38.6916                 1.0113                 0.0000

                    22                     23                     24
                     A                      A                      A
 Frequencies --  1014.9308              1104.2607              1118.3790
 Red. masses --     2.8414                 3.1327                 3.9059
 Frc consts  --     1.7245                 2.2507                 2.8784
 IR Inten    --     3.8117                48.2510                86.1784

                    25                     26                     27
                     A                      A                      A
 Frequencies --  1125.4933              1191.8599              1307.3718
 Red. masses --     1.2370                 1.3680                 1.2782
 Frc consts  --     0.9232                 1.1450                 1.2872
 IR Inten    --     5.4103                 5.4899                 0.6235

                    28                     29                     30
                     A                      A                      A
 Frequencies --  1372.8314              1378.6310              1437.2014
 Red. masses --    14.2809                10.7212                 3.4326
 Frc consts  --    15.8577                12.0057                 4.1774
 IR Inten    --   150.7934                54.1877                12.5843

                    31                     32                     33
                     A                      A                      A
 Frequencies --  1475.5529              1602.4936              1610.3414
 Red. masses --     2.0900                 8.8217                 5.7613
 Frc consts  --     2.6811                13.3474                 8.8026
 IR Inten    --     0.0699                64.0437               103.8332

                    34                     35                     36
                     A                      A                      A
 Frequencies --  1657.0075              2348.8143              3217.8505
 Red. masses --    12.1352                13.9506                 1.0935
 Frc consts  --    19.6311                45.3460                 6.6709
 IR Inten    --   171.2668               233.2936                14.6195

                    37                     38                     39
                     A                      A                      A
 Frequencies --  3218.3023              3231.2909              3232.6825
 Red. masses --     1.0927                 1.0954                 1.0971
 Frc consts  --     6.6679                 6.7388                 6.7549
 IR Inten    --     4.6676                44.8209                17.2827

 - Thermochemistry -
 -------------------
 Temperature   298.150 Kelvin.  Pressure   1.00000 Atm.
 Atom     1 has atomic number  6 and mass  12.00000

 Molecular mass:   150.03035 amu.
 Principal axes and moments of inertia in atomic units:
                           1         2         3
     Eigenvalues --   467.760903027.930863495.69173
           X            1.00000   0.00000   0.00000
           Y            0.00000   1.00000   0.00002
           Z            0.00000  -0.00002   1.00000
 This molecule is an asymmetric top.
 Rotational symmetry number  1.
 Warning -- assumption of classical behavior for rotation
           may cause significant error
 Rotational temperatures (Kelvin)      0.18517     0.02860     0.02478
 Rotational constants (GHZ):           3.85826     0.59603     0.51628
 Zero-point vibrational energy     264012.5 (Joules/Mol)
                                   63.10051 (Kcal/Mol)
 Warning -- explicit consideration of  12 degrees of freedom as
           vibrations may cause significant error
 Vibrational temperatures:     60.30   117.02   207.93   319.64   372.28
          (Kelvin)            469.88   579.22   621.56   721.01   784.88
                              796.69   815.38   921.30   962.08  1096.62
                             1109.78  1189.36  1238.35  1264.88  1440.47
                             1448.87  1460.26  1588.78  1609.10  1619.33
                             1714.82  1881.01  1975.20  1983.54  2067.81
                             2122.99  2305.63  2316.92  2384.06  3379.42
                             4629.76  4630.41  4649.10  4651.10

 Zero-point correction=                           0.100557 (Hartree/Particle)
 Thermal correction to Energy=                    0.109300
 Thermal correction to Enthalpy=                  0.110245
 Thermal correction to Gibbs Free Energy=         0.065611
 Sum of electronic and zero-point Energies=           -545.294621
 Sum of electronic and thermal Energies=              -545.285878
 Sum of electronic and thermal Enthalpies=            -545.284934
 Sum of electronic and thermal Free Energies=         -545.329567

                     E (Thermal)             CV                S
                      KCal/Mol        Cal/Mol-Kelvin    Cal/Mol-Kelvin
 Total                   68.587             32.247             93.939
 Electronic               0.000              0.000              0.000
 Translational            0.889              2.981             40.927
 Rotational               0.889              2.981             29.983
 Vibrational             66.810             26.285             23.029
 Vibration     1          0.595              1.980              5.167
 Vibration     2          0.600              1.962              3.858
 Vibration     3          0.616              1.909              2.743
 Vibration     4          0.648              1.807              1.941
 Vibration     5          0.668              1.748              1.670
 Vibration     6          0.710              1.622              1.277
 Vibration     7          0.768              1.465              0.953
 Vibration     8          0.793              1.401              0.852
 Vibration     9          0.857              1.248              0.655
 Vibration    10          0.901              1.149              0.554
 Vibration    11          0.909              1.132              0.537
 Vibration    12          0.923              1.103              0.511

 Optimization completed.
    -- Stationary point found.
 Normal termination of Gaussian 09 at Tue Mar  6 03:49:54 2018.
