 Gaussian 09, Revision B.01,
 Gaussian 09:  EM64L-G09RevB.01 12-Aug-2010

 ----------------------------------------------------------------------
 #p Temperature=298.15 opt=(maxcycles=1024) SCF=(maxcycles=1024) freq U
 B3LYP/aug-cc-pVDZ
 ----------------------------------------------------------------------

 --------------------------------------------------
 4H-1,2,4-Triazole-3-N2+-UB3LYP-aug-cc-pVDZ-Singlet
 --------------------------------------------------
 Symbolic Z-matrix:
 Charge =  1 Multiplicity = 1

 SCF Done:  E(UB3LYP) =  -350.814457965     A.U. after   16 cycles
 SCF Done:  E(UB3LYP) =  -350.836944967     A.U. after   12 cycles
 SCF Done:  E(UB3LYP) =  -350.837907454     A.U. after   15 cycles
 SCF Done:  E(UB3LYP) =  -350.837993219     A.U. after   12 cycles
 SCF Done:  E(UB3LYP) =  -350.838023973     A.U. after   12 cycles
 SCF Done:  E(UB3LYP) =  -350.838060479     A.U. after   15 cycles
 SCF Done:  E(UB3LYP) =  -350.838061230     A.U. after   16 cycles
 SCF Done:  E(UB3LYP) =  -350.838060895     A.U. after    9 cycles
 Optimization completed.
    -- Stationary point found.
 Normal termination of Gaussian 09 at Thu Apr 12 02:42:08 2018.

 ----------------------------------------------------------------------
 #P Geom=AllCheck Guess=TCheck SCRF=Check GenChk UB3LYP/Aug-CC-pVDZ Fre
 q
 ----------------------------------------------------------------------

 4H-1,2,4-Triazole-3-N2+-UB3LYP-aug-cc-pVDZ-Singlet
 --------------------------------------------------
 Redundant internal coordinates taken from checkpoint file:
 /home/ubuntu/g09/Gau-28337.chk
 Charge =  1 Multiplicity = 1

                         Standard orientation:
 ---------------------------------------------------------------------
 Center     Atomic      Atomic             Coordinates (Angstroms)
 Number     Number       Type             X           Y           Z
 ---------------------------------------------------------------------
      1          7           0       -1.632679    0.040732    0.000058
      2          7           0       -2.748918   -0.008359    0.000415
      3          6           0       -0.278496   -0.009827   -0.000535
      4          6           0        1.789121    0.512984   -0.000357
      5          1           0        2.717399    1.077685    0.000937
      6          7           0        0.559379    1.074630   -0.000160
      7          1           0        0.326645    2.065240    0.000475
      8          7           0        0.400865   -1.162415   -0.000727
      9          7           0        1.691668   -0.824855    0.000975
 ---------------------------------------------------------------------

 SCF Done:  E(UB3LYP) =  -350.838060895     A.U. after    1 cycles

 The electronic state is 1-A.
 Alpha  occ. eigenvalues --  -14.76796 -14.73466 -14.66064 -14.61234 -14.58911
 Alpha  occ. eigenvalues --  -10.56111 -10.49906  -1.42080  -1.32615  -1.18157
 Alpha  occ. eigenvalues --   -1.13149  -0.99413  -0.89021  -0.86978  -0.77813
 Alpha  occ. eigenvalues --   -0.77644  -0.75193  -0.73052  -0.69536  -0.69483
 Alpha  occ. eigenvalues --   -0.56707  -0.56032  -0.51381  -0.49180
 Alpha virt. eigenvalues --   -0.33780  -0.33110  -0.21176  -0.18654  -0.17914
 Alpha virt. eigenvalues --   -0.14283  -0.12805  -0.12158  -0.11287  -0.08973
 Alpha virt. eigenvalues --   -0.08059  -0.06569  -0.06185  -0.05265  -0.04381

  Beta  occ. eigenvalues --  -14.76796 -14.73466 -14.66064 -14.61234 -14.58911
  Beta  occ. eigenvalues --  -10.56111 -10.49906  -1.42080  -1.32615  -1.18157
  Beta  occ. eigenvalues --   -1.13149  -0.99413  -0.89021  -0.86978  -0.77813
  Beta  occ. eigenvalues --   -0.77644  -0.75193  -0.73052  -0.69536  -0.69483
  Beta  occ. eigenvalues --   -0.56707  -0.56032  -0.51381  -0.49180
  Beta virt. eigenvalues --   -0.33780  -0.33110  -0.21176  -0.18654  -0.17914
  Beta virt. eigenvalues --   -0.14283  -0.12805  -0.12158  -0.11287  -0.08973
  Beta virt. eigenvalues --   -0.08059  -0.06569  -0.06185  -0.05265  -0.04381

 Mulliken atomic charges:
              1
     1  N    0.575677
     2  N   -0.364190
     3  C    0.488889
     4  C    0.898449
     5  H   -0.205986
     6  N    0.108688
     7  H   -0.097970
     8  N   -0.163918
     9  N   -0.239638
 Sum of Mulliken atomic charges =   1.00000

 Dipole moment (field-independent basis, Debye):
    X=             -1.5633    Y=              5.5083    Z=              0.0006  Tot=              5.7259
 Quadrupole moment (field-independent basis, Debye-Ang):
   XX=            -21.0453   YY=            -31.0932   ZZ=            -36.3680
   XY=              5.7825   XZ=             -0.0003   YZ=              0.0037

  Exact polarizability:  97.685  -0.369  47.578  -0.002  -0.001  29.860
 Approx polarizability: 215.298  -9.823  83.997  -0.006  -0.006  45.558

                     1                      2                      3
                     A                      A                      A
 Frequencies --   171.2891               185.2318               480.6945
 Red. masses --     7.9046                 9.0451                10.2662
 Frc consts  --     0.1366                 0.1828                 1.3977
 IR Inten    --     0.1928                 6.6875                 0.1597

                     4                      5                      6
                     A                      A                      A
 Frequencies --   521.8002               597.8820               604.2565
 Red. masses --     9.5473                 3.1746                11.1393
 Frc consts  --     1.5316                 0.6686                 2.3964
 IR Inten    --     0.0167                64.7725                 8.5323

                     7                      8                      9
                     A                      A                      A
 Frequencies --   653.5913               666.7963               906.2248
 Red. masses --     1.4048                 4.9458                 1.4597
 Frc consts  --     0.3536                 1.2956                 0.7063
 IR Inten    --    51.7609                 0.6070                 5.4711

                    10                     11                     12
                     A                      A                      A
 Frequencies --   953.0629              1019.6542              1081.7642
 Red. masses --     7.1279                 5.9872                 3.0010
 Frc consts  --     3.8147                 3.6676                 2.0691
 IR Inten    --     1.3846                11.9873               187.0578

                    13                     14                     15
                     A                      A                      A
 Frequencies --  1140.5369              1192.0149              1346.5011
 Red. masses --     1.7939                 2.6833                 7.5776
 Frc consts  --     1.3749                 2.2464                 8.0946
 IR Inten    --    30.8098                58.0696               109.4909

                    16                     17                     18
                     A                      A                      A
 Frequencies --  1358.3285              1448.0211              1505.6301
 Red. masses --     4.6229                 3.3206                 3.4587
 Frc consts  --     5.0255                 4.1022                 4.6195
 IR Inten    --    11.6816                 3.9923                24.9577

                    19                     20                     21
                     A                      A                      A
 Frequencies --  2323.2058              3266.1517              3564.1847
 Red. masses --    13.9701                 1.1036                 1.0856
 Frc consts  --    44.4248                 6.9367                 8.1251
 IR Inten    --   244.0806                40.1635               193.2570

 - Thermochemistry -
 -------------------
 Temperature   298.150 Kelvin.  Pressure   1.00000 Atm.
 Atom     1 has atomic number  7 and mass  14.00307

 Molecular mass:    96.03102 amu.
 Principal axes and moments of inertia in atomic units:
                           1         2         3
     Eigenvalues --   189.61255 845.332541034.94488
           X            0.99980   0.02003   0.00001
           Y           -0.02003   0.99980   0.00004
           Z           -0.00001  -0.00004   1.00000
 This molecule is an asymmetric top.
 Rotational symmetry number  1.
 Rotational temperatures (Kelvin)      0.45679     0.10246     0.08369
 Rotational constants (GHZ):           9.51805     2.13495     1.74380
 Zero-point vibrational energy     149454.4 (Joules/Mol)
                                   35.72046 (Kcal/Mol)
 Warning -- explicit consideration of   6 degrees of freedom as
           vibrations may cause significant error
 Vibrational temperatures:    246.45   266.51   691.61   750.75   860.22
          (Kelvin)            869.39   940.37   959.37  1303.85  1371.24
                             1467.05  1556.42  1640.98  1715.04  1937.31
                             1954.33  2083.38  2166.26  3342.57  4699.26
                             5128.06

 Zero-point correction=                           0.056924 (Hartree/Particle)
 Thermal correction to Energy=                    0.062199
 Thermal correction to Enthalpy=                  0.063143
 Thermal correction to Gibbs Free Energy=         0.027796
 Sum of electronic and zero-point Energies=           -350.781137
 Sum of electronic and thermal Energies=              -350.775862
 Sum of electronic and thermal Enthalpies=            -350.774918
 Sum of electronic and thermal Free Energies=         -350.810265

                     E (Thermal)             CV                S
                      KCal/Mol        Cal/Mol-Kelvin    Cal/Mol-Kelvin
 Total                   39.031             18.516             74.395
 Electronic               0.000              0.000              0.000
 Translational            0.889              2.981             39.597
 Rotational               0.889              2.981             26.609
 Vibrational             37.253             12.554              8.189
 Vibration     1          0.626              1.878              2.421
 Vibration     2          0.631              1.860              2.275
 Vibration     3          0.837              1.293              0.708
 Vibration     4          0.877              1.202              0.606
 Vibration     5          0.956              1.036              0.453
 Vibration     6          0.963              1.023              0.442

 Optimization completed.
    -- Stationary point found.
 Normal termination of Gaussian 09 at Thu Apr 12 02:44:24 2018.
