 Gaussian 09, Revision B.01,
 Gaussian 09:  EM64L-G09RevB.01 12-Aug-2010

 ----------------------------------------------------------------------
 #p Temperature=298.15 opt=(maxcycles=1024) SCF=(maxcycles=1024) freq U
 B3LYP/aug-cc-pVDZ
 ----------------------------------------------------------------------

 -----------------------------------------------
 4H-1,2,4-Triazole-3+-UB3LYP-aug-cc-pVDZ-Singlet
 -----------------------------------------------
 Symbolic Z-matrix:
 Charge =  1 Multiplicity = 1

 SCF Done:  E(UB3LYP) =  -241.137502240     A.U. after   27 cycles
 SCF Done:  E(UB3LYP) =  -241.181284391     A.U. after   19 cycles
 SCF Done:  E(UB3LYP) =  -241.199567948     A.U. after   14 cycles
 SCF Done:  E(UB3LYP) =  -241.203256490     A.U. after   13 cycles
 SCF Done:  E(UB3LYP) =  -241.206329738     A.U. after   14 cycles
 SCF Done:  E(UB3LYP) =  -241.206823716     A.U. after   13 cycles
 SCF Done:  E(UB3LYP) =  -241.207332976     A.U. after   14 cycles
 SCF Done:  E(UB3LYP) =  -241.208097902     A.U. after   12 cycles
 SCF Done:  E(UB3LYP) =  -241.208378996     A.U. after   12 cycles
 SCF Done:  E(UB3LYP) =  -241.208397346     A.U. after   10 cycles
 SCF Done:  E(UB3LYP) =  -241.208400813     A.U. after   10 cycles
 Optimization completed.
    -- Stationary point found.
 Normal termination of Gaussian 09 at Thu Apr 12 03:17:46 2018.

 ----------------------------------------------------------------------
 #P Geom=AllCheck Guess=TCheck SCRF=Check GenChk UB3LYP/Aug-CC-pVDZ Fre
 q
 ----------------------------------------------------------------------

 4H-1,2,4-Triazole-3+-UB3LYP-aug-cc-pVDZ-Singlet
 -----------------------------------------------
 Redundant internal coordinates taken from checkpoint file:
 /home/ubuntu/g09/Gau-304.chk
 Charge =  1 Multiplicity = 1

                         Standard orientation:
 ---------------------------------------------------------------------
 Center     Atomic      Atomic             Coordinates (Angstroms)
 Number     Number       Type             X           Y           Z
 ---------------------------------------------------------------------
      1          6           0       -0.360816   -0.889441    0.000058
      2          6           0        0.835050    0.703724   -0.000101
      3          1           0        1.630650    1.447050    0.000136
      4          7           0        0.959919   -0.655826   -0.000189
      5          1           0        1.740879   -1.310283    0.000937
      6          7           0       -1.388215   -0.221167   -0.000044
      7          7           0       -0.459836    1.016640    0.000117
 ---------------------------------------------------------------------

 SCF Done:  E(UB3LYP) =  -241.208400813     A.U. after    1 cycles

 The electronic state is 1-A.
 Alpha  occ. eigenvalues --  -14.70353 -14.68120 -14.67089 -10.60806 -10.55604
 Alpha  occ. eigenvalues --   -1.37313  -1.22850  -1.11931  -0.92155  -0.90425
 Alpha  occ. eigenvalues --   -0.83150  -0.75357  -0.73893  -0.64590  -0.59384
 Alpha  occ. eigenvalues --   -0.58179  -0.56610
 Alpha virt. eigenvalues --   -0.41501  -0.27267  -0.24279  -0.19920  -0.18698
 Alpha virt. eigenvalues --   -0.14269  -0.12744  -0.11777  -0.11037  -0.08940
 Alpha virt. eigenvalues --   -0.08464  -0.06374  -0.05093  -0.04448  -0.04074

  Beta  occ. eigenvalues --  -14.70353 -14.68120 -14.67089 -10.60806 -10.55604
  Beta  occ. eigenvalues --   -1.37313  -1.22850  -1.11931  -0.92155  -0.90425
  Beta  occ. eigenvalues --   -0.83150  -0.75357  -0.73893  -0.64590  -0.59384
  Beta  occ. eigenvalues --   -0.58179  -0.56610
  Beta virt. eigenvalues --   -0.41501  -0.27267  -0.24279  -0.19920  -0.18698
  Beta virt. eigenvalues --   -0.14269  -0.12744  -0.11777  -0.11037  -0.08940
  Beta virt. eigenvalues --   -0.08464  -0.06374  -0.05093  -0.04448  -0.04074

 Mulliken atomic charges:
              1
     1  C    0.371396
     2  C    0.835731
     3  H   -0.095532
     4  N    0.122046
     5  H   -0.028006
     6  N    0.061017
     7  N   -0.266652
 Sum of Mulliken atomic charges =   1.00000

 Dipole moment (field-independent basis, Debye):
    X=              4.7617    Y=             -2.1931    Z=              0.0017  Tot=              5.2425
 Quadrupole moment (field-independent basis, Debye-Ang):
   XX=            -18.5612   YY=            -17.4361   ZZ=            -26.6583
   XY=              0.3910   XZ=              0.0039   YZ=             -0.0025

  Exact polarizability:  42.441   0.932  43.195  -0.001  -0.001  22.552
 Approx polarizability:  79.675  -6.949 106.863  -0.005   0.000  32.867

                     1                      2                      3
                     A                      A                      A
 Frequencies --   365.0843               460.2721               490.3251
 Red. masses --    11.4871                11.9977                 1.4730
 Frc consts  --     0.9021                 1.4975                 0.2086
 IR Inten    --     4.8406                 5.5652               125.9854

                     4                      5                      6
                     A                      A                      A
 Frequencies --   630.2064               639.1688               798.1625
 Red. masses --    10.2047                 2.2746                 8.4661
 Frc consts  --     2.3879                 0.5475                 3.1777
 IR Inten    --     7.1805                 1.4090                39.7442

                     7                      8                      9
                     A                      A                      A
 Frequencies --   877.5712              1097.1103              1136.5744
 Red. masses --     1.3811                 1.8189                 1.5178
 Frc consts  --     0.6267                 1.2899                 1.1552
 IR Inten    --    16.7839                 7.7235                24.4817

                    10                     11                     12
                     A                      A                      A
 Frequencies --  1255.1513              1402.7334              1480.8817
 Red. masses --     4.1276                 2.2961                 3.8767
 Frc consts  --     3.8312                 2.6619                 5.0091
 IR Inten    --     1.1518                51.2888                14.0234

                    13                     14                     15
                     A                      A                      A
 Frequencies --  1861.1072              3242.5365              3548.3498
 Red. masses --    11.2980                 1.1040                 1.0871
 Frc consts  --    23.0566                 6.8387                 8.0647
 IR Inten    --    15.1766                51.4268               314.6762

 - Thermochemistry -
 -------------------
 Temperature   298.150 Kelvin.  Pressure   1.00000 Atm.
 Atom     1 has atomic number  6 and mass  12.00000

 Molecular mass:    68.02487 amu.
 Principal axes and moments of inertia in atomic units:
                           1         2         3
     Eigenvalues --   144.47339 208.37067 352.84405
           X            0.99999   0.00487   0.00003
           Y           -0.00487   0.99999  -0.00003
           Z           -0.00003   0.00003   1.00000
 This molecule is an asymmetric top.
 Rotational symmetry number  1.
 Rotational temperatures (Kelvin)      0.59951     0.41567     0.24547
 Rotational constants (GHZ):          12.49186     8.66121     5.11484
 Zero-point vibrational energy     115351.3 (Joules/Mol)
                                   27.56963 (Kcal/Mol)
 Warning -- explicit consideration of   3 degrees of freedom as
           vibrations may cause significant error
 Vibrational temperatures:    525.27   662.23   705.47   906.73   919.62
          (Kelvin)           1148.38  1262.63  1578.50  1635.28  1805.88
                             2018.22  2130.66  2677.71  4665.28  5105.28

 Zero-point correction=                           0.043935 (Hartree/Particle)
 Thermal correction to Energy=                    0.048094
 Thermal correction to Enthalpy=                  0.049039
 Thermal correction to Gibbs Free Energy=         0.017524
 Sum of electronic and zero-point Energies=           -241.164466
 Sum of electronic and thermal Energies=              -241.160306
 Sum of electronic and thermal Enthalpies=            -241.159362
 Sum of electronic and thermal Free Energies=         -241.190877

                     E (Thermal)             CV                S
                      KCal/Mol        Cal/Mol-Kelvin    Cal/Mol-Kelvin
 Total                   30.180             14.128             66.328
 Electronic               0.000              0.000              0.000
 Translational            0.889              2.981             38.570
 Rotational               0.889              2.981             23.878
 Vibrational             28.402              8.167              3.880
 Vibration     1          0.738              1.544              1.100
 Vibration     2          0.818              1.338              0.765
 Vibration     3          0.846              1.271              0.683

 Normal termination of Gaussian 09 at Thu Apr 12 03:18:38 2018.
