 Gaussian 09, Revision B.01,
 Gaussian 09:  EM64L-G09RevB.01 12-Aug-2010

 ----------------------------------------------------------------------
 #p Temperature=298.15 opt=(maxcycles=1024) SCF=(maxcycles=1024) freq U
 B3LYP/aug-cc-pVDZ
 ----------------------------------------------------------------------

 -------------------------------------------------
 4H-1,2,4-Triazole-3-N2-UB3LYP-aug-cc-pVDZ-Doublet
 -------------------------------------------------
 Symbolic Z-matrix:
 Charge =  0 Multiplicity = 2

 SCF Done:  E(UB3LYP) =  -351.075176454     A.U. after   21 cycles
 SCF Done:  E(UB3LYP) =  -351.097739028     A.U. after   20 cycles
 SCF Done:  E(UB3LYP) =  -351.098874323     A.U. after   23 cycles
 SCF Done:  E(UB3LYP) =  -351.099121047     A.U. after   17 cycles
 SCF Done:  E(UB3LYP) =  -351.099114998     A.U. after   18 cycles
 SCF Done:  E(UB3LYP) =  -351.099161917     A.U. after   23 cycles
 SCF Done:  E(UB3LYP) =  -351.099173186     A.U. after   16 cycles
 SCF Done:  E(UB3LYP) =  -351.080081308     A.U. after   22 cycles
 SCF Done:  E(UB3LYP) =  -351.099174439     A.U. after   21 cycles
 SCF Done:  E(UB3LYP) =  -351.101320592     A.U. after   21 cycles
 SCF Done:  E(UB3LYP) =  -351.124113118     A.U. after   19 cycles
 SCF Done:  E(UB3LYP) =  -351.124837767     A.U. after   19 cycles
 SCF Done:  E(UB3LYP) =  -351.124577442     A.U. after   19 cycles
 SCF Done:  E(UB3LYP) =  -351.124921708     A.U. after   14 cycles
 SCF Done:  E(UB3LYP) =  -351.124968890     A.U. after   14 cycles
 SCF Done:  E(UB3LYP) =  -351.124987009     A.U. after   14 cycles
 SCF Done:  E(UB3LYP) =  -351.124995698     A.U. after   13 cycles
 SCF Done:  E(UB3LYP) =  -351.125001295     A.U. after   13 cycles
 SCF Done:  E(UB3LYP) =  -351.125003848     A.U. after   22 cycles
 Optimization completed.
    -- Stationary point found.
 Normal termination of Gaussian 09 at Sat Mar 12 02:33:16 2005.

 ----------------------------------------------------------------------
 #P Geom=AllCheck Guess=TCheck SCRF=Check GenChk UB3LYP/Aug-CC-pVDZ Fre
 q
 ----------------------------------------------------------------------

 4H-1,2,4-Triazole-3-N2-UB3LYP-aug-cc-pVDZ-Doublet
 -------------------------------------------------
 Redundant internal coordinates taken from checkpoint file:
 /home/ubuntu/g09/Gau-7569.chk
 Charge =  0 Multiplicity = 2

                         Standard orientation:
 ---------------------------------------------------------------------
 Center     Atomic      Atomic             Coordinates (Angstroms)
 Number     Number       Type             X           Y           Z
 ---------------------------------------------------------------------
      1          7           0        1.678827    0.465076    0.000281
      2          7           0        2.588477   -0.302131   -0.000342
      3          6           0        0.308361    0.085627    0.000350
      4          6           0       -1.829357    0.376359   -0.000188
      5          1           0       -2.807202    0.844083   -0.000373
      6          7           0       -0.651875    1.060502   -0.000239
      7          1           0       -0.495492    2.059871    0.000683
      8          7           0       -0.239860   -1.110541   -0.000032
      9          7           0       -1.600045   -0.923745    0.000149
 ---------------------------------------------------------------------

 SCF Done:  E(UB3LYP) =  -351.125003848     A.U. after    1 cycles

 The electronic state is 2-A.
 Alpha  occ. eigenvalues --  -14.44610 -14.44198 -14.42528 -14.38275 -14.38056
 Alpha  occ. eigenvalues --  -10.31966 -10.28767  -1.11755  -1.08707  -0.95844
 Alpha  occ. eigenvalues --   -0.86048  -0.74789  -0.67633  -0.64557  -0.56667
 Alpha  occ. eigenvalues --   -0.51140  -0.50890  -0.49429  -0.44577  -0.43722
 Alpha  occ. eigenvalues --   -0.35516  -0.34583  -0.29875  -0.29707  -0.23540
 Alpha virt. eigenvalues --   -0.09924  -0.03250  -0.01851   0.00204   0.02348
 Alpha virt. eigenvalues --    0.03096   0.03779   0.04646   0.04970   0.06442
 Alpha virt. eigenvalues --    0.07242   0.07457   0.09164   0.09554   0.10812

  Beta  occ. eigenvalues --  -14.44298 -14.44214 -14.40862 -14.38298 -14.38034
  Beta  occ. eigenvalues --  -10.31601 -10.28781  -1.11246  -1.07289  -0.95818
  Beta  occ. eigenvalues --   -0.85434  -0.73259  -0.67549  -0.64257  -0.56090
  Beta  occ. eigenvalues --   -0.50958  -0.50310  -0.45572  -0.43929  -0.40298
  Beta  occ. eigenvalues --   -0.35275  -0.34701  -0.29520  -0.29405
  Beta virt. eigenvalues --   -0.08885  -0.08732  -0.03179  -0.01873   0.00236
  Beta virt. eigenvalues --    0.02405   0.03296   0.03980   0.04708   0.05061
  Beta virt. eigenvalues --    0.06518   0.07271   0.07539   0.09235   0.09620

 Mulliken atomic charges:
              1
     1  N    0.153075
     2  N   -0.525042
     3  C    0.469945
     4  C    0.761738
     5  H   -0.304753
     6  N    0.130487
     7  H   -0.166606
     8  N   -0.238765
     9  N   -0.280079
 Sum of Mulliken atomic charges =   0.00000

 Dipole moment (field-independent basis, Debye):
    X=             -2.1402    Y=              5.2971    Z=              0.0012  Tot=              5.7131
 Quadrupole moment (field-independent basis, Debye-Ang):
   XX=            -42.9966   YY=            -39.3896   ZZ=            -39.3092
   XY=             -5.2783   XZ=              0.0015   YZ=              0.0021

  Exact polarizability:  88.472  -3.180  57.644   0.001   0.005  35.623
 Approx polarizability: 140.606  -7.326 101.087  -0.001   0.003  53.900

                     1                      2                      3
                     A                      A                      A
 Frequencies --   119.6868               234.7541               274.7008
 Red. masses --     9.6062                 9.3656                 9.2160
 Frc consts  --     0.0811                 0.3041                 0.4097
 IR Inten    --     1.1596                 2.6790                 1.2753

                     4                      5                      6
                     A                      A                      A
 Frequencies --   501.5425               596.2949               672.7195
 Red. masses --     7.8229                 1.4363                 2.3073
 Frc consts  --     1.1594                 0.3009                 0.6152
 IR Inten    --    12.5029               106.1365                 0.1653

                     7                      8                      9
                     A                      A                      A
 Frequencies --   675.0743               692.1363               840.4541
 Red. masses --    12.6443                10.8763                 1.4022
 Frc consts  --     3.3951                 3.0698                 0.5835
 IR Inten    --    33.8669                 0.0383                13.8873

                    10                     11                     12
                     A                      A                      A
 Frequencies --   957.2429              1025.7574              1070.1279
 Red. masses --     6.3902                 6.2256                 5.9347
 Frc consts  --     3.4499                 3.8594                 4.0043
 IR Inten    --     1.2656                 1.2218                 9.8256

                    13                     14                     15
                     A                      A                      A
 Frequencies --  1092.3000              1209.1836              1332.5863
 Red. masses --     1.5280                 1.7741                 7.8287
 Frc consts  --     1.0742                 1.5283                 8.1909
 IR Inten    --    20.9039                12.8614                 7.3043

                    16                     17                     18
                     A                      A                      A
 Frequencies --  1420.0130              1471.1627              1514.8084
 Red. masses --     5.7482                 5.1637                 3.4057
 Frc consts  --     6.8292                 6.5847                 4.6044
 IR Inten    --    12.6571                19.3763                40.1646

                    19                     20                     21
                     A                      A                      A
 Frequencies --  1820.4076              3274.6586              3630.0823
 Red. masses --    13.8011                 1.1001                 1.0830
 Frc consts  --    26.9464                 6.9504                 8.4084
 IR Inten    --    22.7171                 0.9132                90.5189

 - Thermochemistry -
 -------------------
 Temperature   298.150 Kelvin.  Pressure   1.00000 Atm.
 Atom     1 has atomic number  7 and mass  14.00307

 Molecular mass:    96.03102 amu.
 Principal axes and moments of inertia in atomic units:
                           1         2         3
     Eigenvalues --   199.61992 804.719531004.33940
           X            0.99979  -0.02046   0.00000
           Y            0.02046   0.99979   0.00002
           Z            0.00000  -0.00002   1.00000
 This molecule is an asymmetric top.
 Rotational symmetry number  1.
 Rotational temperatures (Kelvin)      0.43389     0.10763     0.08624
 Rotational constants (GHZ):           9.04089     2.24270     1.79694
 Zero-point vibrational energy     146098.1 (Joules/Mol)
                                   34.91828 (Kcal/Mol)
 Warning -- explicit consideration of   5 degrees of freedom as
           vibrations may cause significant error
 Vibrational temperatures:    172.20   337.76   395.23   721.61   857.93
          (Kelvin)            967.89   971.28   995.83  1209.22  1377.26
                             1475.83  1539.67  1571.57  1739.74  1917.29
                             2043.08  2116.67  2179.47  2619.16  4711.50
                             5222.87

 Zero-point correction=                           0.055646 (Hartree/Particle)
 Thermal correction to Energy=                    0.061127
 Thermal correction to Enthalpy=                  0.062071
 Thermal correction to Gibbs Free Energy=         0.025587
 Sum of electronic and zero-point Energies=           -351.069358
 Sum of electronic and thermal Energies=              -351.063877
 Sum of electronic and thermal Enthalpies=            -351.062932
 Sum of electronic and thermal Free Energies=         -351.099417

                     E (Thermal)             CV                S
                      KCal/Mol        Cal/Mol-Kelvin    Cal/Mol-Kelvin
 Total                   38.358             18.857             76.787
 Electronic               0.000              0.000              1.377
 Translational            0.889              2.981             39.597
 Rotational               0.889              2.981             26.581
 Vibrational             36.580             12.895              9.232
 Vibration     1          0.609              1.933              3.105
 Vibration     2          0.655              1.788              1.842
 Vibration     3          0.677              1.720              1.566
 Vibration     4          0.857              1.247              0.654
 Vibration     5          0.954              1.040              0.456

 Optimization completed.
    -- Stationary point found.
 Normal termination of Gaussian 09 at Sat Mar 12 02:35:40 2005.
