 Gaussian 09, Revision B.01,
 Gaussian 09:  EM64L-G09RevB.01 12-Aug-2010

 ----------------------------------------------------------------------
 #p Temperature=298.15 opt=(maxcycles=1024) SCF=(maxcycles=1024) freq U
 B3LYP/aug-cc-pVDZ
 ----------------------------------------------------------------------

 ----------------------------------------------
 4H-1,2,4-Triazole-3-UB3LYP-aug-cc-pVDZ-Doublet
 ----------------------------------------------
 Symbolic Z-matrix:
 Charge =  0 Multiplicity = 2

 SCF Done:  E(UB3LYP) =  -241.555821039     A.U. after   21 cycles
 SCF Done:  E(UB3LYP) =  -241.576872716     A.U. after   16 cycles
 SCF Done:  E(UB3LYP) =  -241.579092274     A.U. after   17 cycles
 SCF Done:  E(UB3LYP) =  -241.579585263     A.U. after   14 cycles
 SCF Done:  E(UB3LYP) =  -241.579217066     A.U. after   15 cycles
 SCF Done:  E(UB3LYP) =  -241.579701469     A.U. after   14 cycles
 SCF Done:  E(UB3LYP) =  -241.579756390     A.U. after   17 cycles
 SCF Done:  E(UB3LYP) =  -241.579759735     A.U. after   13 cycles
 SCF Done:  E(UB3LYP) =  -241.579761987     A.U. after   17 cycles
 Optimization completed.
    -- Stationary point found.
 Normal termination of Gaussian 09 at Sat Mar 12 02:37:46 2005.

 ----------------------------------------------------------------------
 #P Geom=AllCheck Guess=TCheck SCRF=Check GenChk UB3LYP/Aug-CC-pVDZ Fre
 q
 ----------------------------------------------------------------------

 4H-1,2,4-Triazole-3-UB3LYP-aug-cc-pVDZ-Doublet
 ----------------------------------------------
 Redundant internal coordinates taken from checkpoint file:
 /home/ubuntu/g09/Gau-11471.chk
 Charge =  0 Multiplicity = 2

                         Standard orientation:
 ---------------------------------------------------------------------
 Center     Atomic      Atomic             Coordinates (Angstroms)
 Number     Number       Type             X           Y           Z
 ---------------------------------------------------------------------
      1          6           0        0.238681   -1.124313    0.000609
      2          6           0       -0.678854    0.816937    0.000000
      3          1           0       -1.416047    1.612486    0.000867
      4          7           0       -0.988336   -0.522029   -0.000369
      5          1           0       -1.894732   -0.965775   -0.000149
      6          7           0        1.216031   -0.298739   -0.000330
      7          7           0        0.622565    0.991846    0.000075
 ---------------------------------------------------------------------

 SCF Done:  E(UB3LYP) =  -241.579761987     A.U. after    1 cycles

 The electronic state is 2-A.
 Alpha  occ. eigenvalues --  -14.42999 -14.37479 -14.36738 -10.28977 -10.27698
 Alpha  occ. eigenvalues --   -1.08793  -0.93787  -0.84124  -0.65675  -0.64530
 Alpha  occ. eigenvalues --   -0.58451  -0.48760  -0.47983  -0.37699  -0.32746
 Alpha  occ. eigenvalues --   -0.30144  -0.29660  -0.29551
 Alpha virt. eigenvalues --   -0.02862  -0.01371   0.00548   0.00784   0.03326
 Alpha virt. eigenvalues --    0.04124   0.05428   0.05566   0.07592   0.07930
 Alpha virt. eigenvalues --    0.08393   0.10183   0.11512   0.12192   0.13782

  Beta  occ. eigenvalues --  -14.42819 -14.37199 -14.36658 -10.27669 -10.27425
  Beta  occ. eigenvalues --   -1.08046  -0.93288  -0.83084  -0.65271  -0.63504
  Beta  occ. eigenvalues --   -0.56856  -0.48376  -0.47562  -0.34656  -0.32763
  Beta  occ. eigenvalues --   -0.28866  -0.28815
  Beta virt. eigenvalues --   -0.15405  -0.02779  -0.01011   0.00638   0.02253
  Beta virt. eigenvalues --    0.03666   0.04281   0.05505   0.05829   0.07693
  Beta virt. eigenvalues --    0.08270   0.08598   0.10228   0.11492   0.12438

 Mulliken atomic charges:
              1
     1  C    0.084395
     2  C    0.696809
     3  H   -0.252783
     4  N    0.097821
     5  H   -0.156148
     6  N   -0.212472
     7  N   -0.257622
 Sum of Mulliken atomic charges =   0.00000

 Dipole moment (field-independent basis, Debye):
    X=             -5.2704    Y=             -1.1345    Z=              0.0007  Tot=              5.3911
 Quadrupole moment (field-independent basis, Debye-Ang):
   XX=            -27.2111   YY=            -28.1445   ZZ=            -29.5676
   XY=             -0.3216   XZ=             -0.0010   YZ=              0.0020

  Exact polarizability:  49.170  -0.558  51.172   0.001  -0.011  29.291
 Approx polarizability:  84.164   3.876  85.210  -0.002  -0.023  42.208

                     1                      2                      3
                     A                      A                      A
 Frequencies --   485.7307               599.6842               660.0986
 Red. masses --     2.1205                 2.6499                 2.8250
 Frc consts  --     0.2948                 0.5615                 0.7252
 IR Inten    --    63.5874                35.9408                 0.1500

                     4                      5                      6
                     A                      A                      A
 Frequencies --   807.9307               836.7350               881.7590
 Red. masses --    10.3957                 1.3699                 9.5317
 Frc consts  --     3.9981                 0.5651                 4.3663
 IR Inten    --     9.3021                19.8787                 8.9944

                     7                      8                      9
                     A                      A                      A
 Frequencies --   964.8682              1070.8417              1142.6511
 Red. masses --     8.6605                 1.6500                 1.7889
 Frc consts  --     4.7504                 1.1148                 1.3761
 IR Inten    --     3.7843                 9.3829                37.8105

                    10                     11                     12
                     A                      A                      A
 Frequencies --  1276.7504              1388.9198              1505.8363
 Red. masses --     3.3727                 2.7856                 6.4457
 Frc consts  --     3.2392                 3.1661                 8.6114
 IR Inten    --     0.3295                21.5159                33.8729

                    13                     14                     15
                     A                      A                      A
 Frequencies --  1511.6253              3266.1137              3657.7744
 Red. masses --     4.2818                 1.0990                 1.0826
 Frc consts  --     5.7645                 6.9075                 8.5344
 IR Inten    --    23.6246                 0.0018                85.4759

 - Thermochemistry -
 -------------------
 Temperature   298.150 Kelvin.  Pressure   1.00000 Atm.
 Atom     1 has atomic number  6 and mass  12.00000

 Molecular mass:    68.02487 amu.
 Principal axes and moments of inertia in atomic units:
                           1         2         3
     Eigenvalues --   162.60592 184.07223 346.67809
           X            0.99674  -0.08066  -0.00002
           Y            0.08066   0.99674   0.00003
           Z            0.00002  -0.00004   1.00000
 This molecule is an asymmetric top.
 Rotational symmetry number  1.
 Rotational temperatures (Kelvin)      0.53266     0.47054     0.24984
 Rotational constants (GHZ):          11.09887     9.80453     5.20581
 Zero-point vibrational energy     119969.4 (Joules/Mol)
                                   28.67338 (Kcal/Mol)
 Warning -- explicit consideration of   2 degrees of freedom as
           vibrations may cause significant error
 Vibrational temperatures:    698.86   862.81   949.73  1162.43  1203.87
          (Kelvin)           1268.65  1388.23  1540.70  1644.02  1836.96
                             1998.34  2166.56  2174.89  4699.20  5262.71

 Zero-point correction=                           0.045694 (Hartree/Particle)
 Thermal correction to Energy=                    0.049374
 Thermal correction to Enthalpy=                  0.050319
 Thermal correction to Gibbs Free Energy=         0.018895
 Sum of electronic and zero-point Energies=           -241.534068
 Sum of electronic and thermal Energies=              -241.530388
 Sum of electronic and thermal Enthalpies=            -241.529443
 Sum of electronic and thermal Free Energies=         -241.560867

                     E (Thermal)             CV                S
                      KCal/Mol        Cal/Mol-Kelvin    Cal/Mol-Kelvin
 Total                   30.983             12.322             66.136
 Electronic               0.000              0.000              1.377
 Translational            0.889              2.981             38.570
 Rotational               0.889              2.981             23.855
 Vibrational             29.205              6.361              2.334
 Vibration     1          0.842              1.282              0.695
 Vibration     2          0.958              1.032              0.450

 Optimization completed.
    -- Stationary point found.
 Normal termination of Gaussian 09 at Sat Mar 12 02:38:42 2005.
