 Gaussian 09, Revision B.01,
 Gaussian 09:  EM64L-G09RevB.01 12-Aug-2010

 ----------------------------------------------------------------------
 #p Temperature=298.15 opt=(maxcycles=1024) SCF=(maxcycles=1024) freq U
 B3LYP/aug-cc-pVDZ
 ----------------------------------------------------------------------

 -----------------------------------------------
 4H-1,2,4-Triazole-3+-UB3LYP-aug-cc-pVDZ-Triplet
 -----------------------------------------------
 Symbolic Z-matrix:
 Charge =  1 Multiplicity = 3

 SCF Done:  E(UB3LYP) =  -241.195437119     A.U. after   21 cycles
 SCF Done:  E(UB3LYP) =  -241.211367079     A.U. after   18 cycles
 SCF Done:  E(UB3LYP) =  -241.212311181     A.U. after   22 cycles
 SCF Done:  E(UB3LYP) =  -241.212399532     A.U. after   24 cycles
 SCF Done:  E(UB3LYP) =  -241.212379835     A.U. after   15 cycles
 SCF Done:  E(UB3LYP) =  -241.212413494     A.U. after   17 cycles
 SCF Done:  E(UB3LYP) =  -241.212425190     A.U. after   18 cycles
 Optimization completed.
    -- Stationary point found.
 Normal termination of Gaussian 09 at Thu Apr 12 03:20:27 2018.

 ----------------------------------------------------------------------
 #P Geom=AllCheck Guess=TCheck SCRF=Check GenChk UB3LYP/Aug-CC-pVDZ Fre
 q
 ----------------------------------------------------------------------

 4H-1,2,4-Triazole-3+-UB3LYP-aug-cc-pVDZ-Triplet
 -----------------------------------------------
 Redundant internal coordinates taken from checkpoint file:
 /home/ubuntu/g09/Gau-1286.chk
 Charge =  1 Multiplicity = 3

                         Standard orientation:
 ---------------------------------------------------------------------
 Center     Atomic      Atomic             Coordinates (Angstroms)
 Number     Number       Type             X           Y           Z
 ---------------------------------------------------------------------
      1          6           0       -0.055084   -1.149992   -0.000022
      2          6           0        0.606827    0.878907    0.000055
      3          1           0        1.202341    1.791286   -0.000039
      4          7           0        1.070164   -0.378022   -0.000083
      5          1           0        2.037242   -0.704978    0.000333
      6          7           0       -1.202366   -0.392003    0.000050
      7          7           0       -0.803518    0.847197   -0.000037
 ---------------------------------------------------------------------

 SCF Done:  E(UB3LYP) =  -241.212425190     A.U. after    1 cycles

 The electronic state is 3-A.
 Alpha  occ. eigenvalues --  -14.70215 -14.66677 -14.65968 -10.59752 -10.57863
 Alpha  occ. eigenvalues --   -1.38014  -1.23640  -1.08971  -0.94012  -0.91789
 Alpha  occ. eigenvalues --   -0.84853  -0.76166  -0.75656  -0.64971  -0.61741
 Alpha  occ. eigenvalues --   -0.58395  -0.56358  -0.54074
 Alpha virt. eigenvalues --   -0.30151  -0.27318  -0.19653  -0.14894  -0.13767
 Alpha virt. eigenvalues --   -0.12110  -0.11568  -0.09859  -0.08848  -0.06567
 Alpha virt. eigenvalues --   -0.05867  -0.05505  -0.04746  -0.04674  -0.03473

  Beta  occ. eigenvalues --  -14.70322 -14.66130 -14.65733 -10.57334 -10.57106
  Beta  occ. eigenvalues --   -1.36445  -1.23037  -1.05651  -0.92980  -0.90081
  Beta  occ. eigenvalues --   -0.83058  -0.74669  -0.73005  -0.61932  -0.60914
  Beta  occ. eigenvalues --   -0.53002
  Beta virt. eigenvalues --   -0.44567  -0.40305  -0.25587  -0.22481  -0.19568
  Beta virt. eigenvalues --   -0.14463  -0.13325  -0.11766  -0.11168  -0.08601
  Beta virt. eigenvalues --   -0.08280  -0.05936  -0.05347  -0.04657  -0.04439

 Mulliken atomic charges:
              1
     1  C    0.378887
     2  C    0.794312
     3  H   -0.084625
     4  N    0.184901
     5  H   -0.037333
     6  N   -0.118013
     7  N   -0.118129
 Sum of Mulliken atomic charges =   1.00000

 Dipole moment (field-independent basis, Debye):
    X=              5.5419    Y=             -0.3516    Z=              0.0006  Tot=              5.5530
 Quadrupole moment (field-independent basis, Debye-Ang):
   XX=            -19.2589   YY=            -19.2728   ZZ=            -25.5893
   XY=              0.8803   XZ=              0.0013   YZ=             -0.0002

  Exact polarizability:  40.458   0.321  44.861   0.000  -0.001  22.745
 Approx polarizability:  67.004  -1.028  86.312   0.000  -0.001  33.854

                     1                      2                      3
                     A                      A                      A
 Frequencies --   292.8852               605.2457               738.2814
 Red. masses --     5.6380                 3.6504                 1.2074
 Frc consts  --     0.2850                 0.7879                 0.3878
 IR Inten    --    36.8388                 2.7493               101.3248

                     4                      5                      6
                     A                      A                      A
 Frequencies --   743.7114               814.3933               874.0877
 Red. masses --    10.3596                 9.8274                 1.5346
 Frc consts  --     3.3760                 3.8402                 0.6908
 IR Inten    --    18.0600                19.5093                 0.2447

                     7                      8                      9
                     A                      A                      A
 Frequencies --   937.2587              1011.9690              1044.5383
 Red. masses --     8.2800                 2.5068                 2.9403
 Frc consts  --     4.2855                 1.5125                 1.8901
 IR Inten    --     2.5157                 4.5401                10.2985

                    10                     11                     12
                     A                      A                      A
 Frequencies --  1181.0713              1286.3115              1398.1288
 Red. masses --     1.9194                11.0040                 1.6791
 Frc consts  --     1.5775                10.7274                 1.9339
 IR Inten    --    15.1824                 0.8639                82.8327

                    13                     14                     15
                     A                      A                      A
 Frequencies --  1445.4725              3243.9472              3529.8498
 Red. masses --     3.7611                 1.1030                 1.0859
 Frc consts  --     4.6301                 6.8386                 7.9720
 IR Inten    --     6.2314                50.0646               287.5080

 - Thermochemistry -
 -------------------
 Temperature   298.150 Kelvin.  Pressure   1.00000 Atm.
 Atom     1 has atomic number  6 and mass  12.00000

 Molecular mass:    68.02487 amu.
 Principal axes and moments of inertia in atomic units:
                           1         2         3
     Eigenvalues --   153.60173 197.52513 351.12686
           X            0.99806   0.06230   0.00001
           Y           -0.06230   0.99806  -0.00001
           Z           -0.00001   0.00001   1.00000
 This molecule is an asymmetric top.
 Rotational symmetry number  1.
 Rotational temperatures (Kelvin)      0.56389     0.43850     0.24667
 Rotational constants (GHZ):          11.74949     9.13677     5.13986
 Zero-point vibrational energy     114525.4 (Joules/Mol)
                                   27.37223 (Kcal/Mol)
 Warning -- explicit consideration of   2 degrees of freedom as
           vibrations may cause significant error
 Vibrational temperatures:    421.40   870.81  1062.22  1070.03  1171.73
          (Kelvin)           1257.62  1348.50  1456.00  1502.86  1699.30
                             1850.71  2011.59  2079.71  4667.31  5078.66

 Zero-point correction=                           0.043620 (Hartree/Particle)
 Thermal correction to Energy=                    0.047524
 Thermal correction to Enthalpy=                  0.048468
 Thermal correction to Gibbs Free Energy=         0.016255
 Sum of electronic and zero-point Energies=           -241.168805
 Sum of electronic and thermal Energies=              -241.164901
 Sum of electronic and thermal Enthalpies=            -241.163957
 Sum of electronic and thermal Free Energies=         -241.196170

                     E (Thermal)             CV                S
                      KCal/Mol        Cal/Mol-Kelvin    Cal/Mol-Kelvin
 Total                   29.822             13.055             67.798
 Electronic               0.000              0.000              2.183
 Translational            0.889              2.981             38.570
 Rotational               0.889              2.981             23.881
 Vibrational             28.044              7.093              3.165
 Vibration     1          0.688              1.687              1.457
 Vibration     2          0.964              1.021              0.441

 Optimization completed.
    -- Stationary point found.
 Normal termination of Gaussian 09 at Thu Apr 12 03:21:22 2018.
