 Gaussian 09, Revision B.01,
 Gaussian 09:  EM64L-G09RevB.01 12-Aug-2010

 ----------------------------------------------------------------------
 #p Temperature=298.15 opt=(maxcycles=1024) SCF=(maxcycles=1024) freq U
 B3LYP/aug-cc-pVDZ
 ----------------------------------------------------------------------

 --------------------------------------------------
 4H-1,2,4-Triazole-3-N2+-UB3LYP-aug-cc-pVDZ-Triplet
 --------------------------------------------------
 Symbolic Z-matrix:
 Charge =  1 Multiplicity = 3

 SCF Done:  E(UB3LYP) =  -350.716298345     A.U. after   24 cycles
 SCF Done:  E(UB3LYP) =  -350.738419653     A.U. after   22 cycles
 SCF Done:  E(UB3LYP) =  -350.741589835     A.U. after   23 cycles
 SCF Done:  E(UB3LYP) =  -350.742525647     A.U. after   22 cycles
 SCF Done:  E(UB3LYP) =  -350.742914887     A.U. after   21 cycles
 SCF Done:  E(UB3LYP) =  -350.742908535     A.U. after   22 cycles
 SCF Done:  E(UB3LYP) =  -350.743046726     A.U. after   20 cycles
 SCF Done:  E(UB3LYP) =  -350.743095649     A.U. after   25 cycles
 SCF Done:  E(UB3LYP) =  -350.743099162     A.U. after   16 cycles
 SCF Done:  E(UB3LYP) =  -350.743101263     A.U. after   18 cycles
 SCF Done:  E(UB3LYP) =  -350.755775879     A.U. after   24 cycles
 SCF Done:  E(UB3LYP) =  -350.756677213     A.U. after   24 cycles
 SCF Done:  E(UB3LYP) =  -350.756766021     A.U. after   21 cycles
 SCF Done:  E(UB3LYP) =  -350.757073597     A.U. after   23 cycles
 SCF Done:  E(UB3LYP) =  -350.757122059     A.U. after   18 cycles
 SCF Done:  E(UB3LYP) =  -350.757140741     A.U. after   17 cycles
 SCF Done:  E(UB3LYP) =  -350.757144844     A.U. after   27 cycles
 SCF Done:  E(UB3LYP) =  -350.757145595     A.U. after   17 cycles
 SCF Done:  E(UB3LYP) =  -350.757145714     A.U. after   16 cycles
 Optimization completed.
    -- Stationary point found.
 Normal termination of Gaussian 09 at Thu Apr 12 03:10:54 2018.

 ----------------------------------------------------------------------
 #P Geom=AllCheck Guess=TCheck SCRF=Check GenChk UB3LYP/Aug-CC-pVDZ Fre
 q
 ----------------------------------------------------------------------

 4H-1,2,4-Triazole-3-N2+-UB3LYP-aug-cc-pVDZ-Triplet
 --------------------------------------------------
 Redundant internal coordinates taken from checkpoint file:
 /home/ubuntu/g09/Gau-29042.chk
 Charge =  1 Multiplicity = 3

                         Standard orientation:
 ---------------------------------------------------------------------
 Center     Atomic      Atomic             Coordinates (Angstroms)
 Number     Number       Type             X           Y           Z
 ---------------------------------------------------------------------
      1          7           0       -1.667264    0.462765   -0.166755
      2          7           0       -2.532199   -0.308696    0.167257
      3          6           0       -0.327662    0.133102   -0.055410
      4          6           0        1.812087    0.394546    0.043191
      5          1           0        2.809294    0.827604    0.096846
      6          7           0        0.656404    1.077818    0.035775
      7          1           0        0.524537    2.089942    0.053392
      8          7           0        0.257947   -1.131203   -0.054069
      9          7           0        1.536487   -0.969747    0.006803
 ---------------------------------------------------------------------

 SCF Done:  E(UB3LYP) =  -350.757145714     A.U. after    1 cycles

 The electronic state is 3-A.
 Alpha  occ. eigenvalues --  -14.68809 -14.66095 -14.65444 -14.64800 -14.64535
 Alpha  occ. eigenvalues --  -10.59380 -10.56147  -1.37158  -1.31479  -1.22412
 Alpha  occ. eigenvalues --   -1.09487  -0.98199  -0.92878  -0.89018  -0.81008
 Alpha  occ. eigenvalues --   -0.76108  -0.74617  -0.71163  -0.66868  -0.64520
 Alpha  occ. eigenvalues --   -0.61241  -0.60269  -0.54153  -0.52806  -0.45516
 Alpha virt. eigenvalues --   -0.33020  -0.26923  -0.22021  -0.19012  -0.14674
 Alpha virt. eigenvalues --   -0.13718  -0.11847  -0.11200  -0.09933  -0.08105
 Alpha virt. eigenvalues --   -0.06831  -0.05816  -0.05186  -0.04645  -0.04209

  Beta  occ. eigenvalues --  -14.69015 -14.65871 -14.64550 -14.64264 -14.63346
  Beta  occ. eigenvalues --  -10.58415 -10.55517  -1.36233  -1.29258  -1.22178
  Beta  occ. eigenvalues --   -1.07052  -0.96096  -0.92213  -0.88164  -0.80207
  Beta  occ. eigenvalues --   -0.74106  -0.73467  -0.66429  -0.64662  -0.60975
  Beta  occ. eigenvalues --   -0.60302  -0.59629  -0.51761
  Beta virt. eigenvalues --   -0.43945  -0.29719  -0.29343  -0.23915  -0.18977
  Beta virt. eigenvalues --   -0.18826  -0.14242  -0.13580  -0.11647  -0.10882
  Beta virt. eigenvalues --   -0.09558  -0.07889  -0.06439  -0.05574  -0.04936

 Mulliken atomic charges:
              1
     1  N    0.135375
     2  N   -0.277162
     3  C    0.671282
     4  C    0.855164
     5  H   -0.150087
     6  N    0.173801
     7  H   -0.074074
     8  N   -0.166831
     9  N   -0.167467
 Sum of Mulliken atomic charges =   1.00000

 Dipole moment (field-independent basis, Debye):
    X=              3.4516    Y=              5.1462    Z=              0.0786  Tot=              6.1970
 Quadrupole moment (field-independent basis, Debye-Ang):
   XX=            -24.3010   YY=            -31.6211   ZZ=            -35.6871
   XY=              5.6928   XZ=              0.4196   YZ=              0.8112

  Exact polarizability:  85.965   0.588  52.541  -0.679   0.910  30.945
 Approx polarizability: 144.160   5.953  86.802  -0.253  -1.956  47.478

                     1                      2                      3
                     A                      A                      A
 Frequencies --    87.9794               196.3240               255.4031
 Red. masses --    10.4800                 8.7964                 8.2673
 Frc consts  --     0.0478                 0.1998                 0.3177
 IR Inten    --     3.5462                 3.3591                 0.3898

                     4                      5                      6
                     A                      A                      A
 Frequencies --   428.7702               500.1120               586.6591
 Red. masses --     4.9507                 7.9981                 6.0996
 Frc consts  --     0.5362                 1.1786                 1.2369
 IR Inten    --    94.9897                14.1398                10.3706

                     7                      8                      9
                     A                      A                      A
 Frequencies --   680.2969               740.4235               849.4191
 Red. masses --     5.6743                 1.2591                 2.1594
 Frc consts  --     1.5473                 0.4067                 0.9180
 IR Inten    --     8.7801               102.5633                20.0277

                    10                     11                     12
                     A                      A                      A
 Frequencies --   883.9887               929.2658              1001.9101
 Red. masses --     4.6628                 5.2113                 3.3999
 Frc consts  --     2.1468                 2.6514                 2.0108
 IR Inten    --    14.7444                22.2918                10.2574

                    13                     14                     15
                     A                      A                      A
 Frequencies --  1083.5803              1147.7177              1283.9956
 Red. masses --     1.7908                 2.9970                 3.5752
 Frc consts  --     1.2388                 2.3260                 3.4728
 IR Inten    --     5.6403                29.3819                 3.1593

                    16                     17                     18
                     A                      A                      A
 Frequencies --  1354.3065              1435.0853              1466.5415
 Red. masses --     7.1865                 2.4728                 3.5090
 Frc consts  --     7.7661                 3.0005                 4.4466
 IR Inten    --    15.9415               186.8519                67.9235

                    19                     20                     21
                     A                      A                      A
 Frequencies --  1681.7074              3253.2400              3527.5171
 Red. masses --    13.0785                 1.1033                 1.0855
 Frc consts  --    21.7926                 6.8797                 7.9581
 IR Inten    --    62.6954                53.9181               233.4868

 - Thermochemistry -
 -------------------
 Temperature   298.150 Kelvin.  Pressure   1.00000 Atm.
 Atom     1 has atomic number  7 and mass  14.00307

 Molecular mass:    96.03102 amu.
 Principal axes and moments of inertia in atomic units:
                           1         2         3
     Eigenvalues --   212.86287 780.40034 986.75792
           X            0.99976   0.02201   0.00146
           Y           -0.02201   0.99975   0.00346
           Z           -0.00138  -0.00349   0.99999
 This molecule is an asymmetric top.
 Rotational symmetry number  1.
 Rotational temperatures (Kelvin)      0.40690     0.11099     0.08778
 Rotational constants (GHZ):           8.47842     2.31258     1.82896
 Zero-point vibrational energy     139809.0 (Joules/Mol)
                                   33.41516 (Kcal/Mol)
 Warning -- explicit consideration of   6 degrees of freedom as
           vibrations may cause significant error
 Vibrational temperatures:    126.58   282.47   367.47   616.90   719.55
          (Kelvin)            844.07   978.79  1065.30  1222.12  1271.86
                             1337.00  1441.52  1559.03  1651.31  1847.38
                             1948.54  2064.77  2110.02  2419.60  4680.68
                             5075.30

 Zero-point correction=                           0.053250 (Hartree/Particle)
 Thermal correction to Energy=                    0.059069
 Thermal correction to Enthalpy=                  0.060013
 Thermal correction to Gibbs Free Energy=         0.022350
 Sum of electronic and zero-point Energies=           -350.703895
 Sum of electronic and thermal Energies=              -350.698077
 Sum of electronic and thermal Enthalpies=            -350.697133
 Sum of electronic and thermal Free Energies=         -350.734796

                     E (Thermal)             CV                S
                      KCal/Mol        Cal/Mol-Kelvin    Cal/Mol-Kelvin
 Total                   37.066             19.821             79.268
 Electronic               0.000              0.000              2.183
 Translational            0.889              2.981             39.597
 Rotational               0.889              2.981             26.597
 Vibrational             35.289             13.859             10.890
 Vibration     1          0.601              1.958              3.705
 Vibration     2          0.636              1.845              2.167
 Vibration     3          0.666              1.754              1.693
 Vibration     4          0.790              1.408              0.863
 Vibration     5          0.856              1.250              0.658
 Vibration     6          0.944              1.060              0.473

 Optimization completed.
    -- Stationary point found.
 Normal termination of Gaussian 09 at Thu Apr 12 03:13:19 2018.
