 Gaussian 09, Revision B.01,
 Gaussian 09:  EM64L-G09RevB.01 12-Aug-2010

 -------------------------------------------------
 #p Temperature=298.15 opt freq UB3LYP/aug-cc-pVDZ
 -------------------------------------------------

 -------------------------------------
 C13H18N4++-UB3LYP-aug-cc-pVDZ-Singlet
 -------------------------------------
 Symbolic Z-matrix:
 Charge =  2 Multiplicity = 1

 SCF Done:  E(UB3LYP) =  -724.289842030     A.U. after   29 cycles
 SCF Done:  E(UB3LYP) =  -724.346448503     A.U. after   30 cycles
 SCF Done:  E(UB3LYP) =  -724.381786660     A.U. after   16 cycles
 SCF Done:  E(UB3LYP) =  -724.402980090     A.U. after   17 cycles
 SCF Done:  E(UB3LYP) =  -724.405480174     A.U. after   18 cycles
 SCF Done:  E(UB3LYP) =  -724.407767578     A.U. after   18 cycles
 SCF Done:  E(UB3LYP) =  -724.408371976     A.U. after   17 cycles
 SCF Done:  E(UB3LYP) =  -724.408807159     A.U. after   17 cycles
 SCF Done:  E(UB3LYP) =  -724.409139421     A.U. after   17 cycles
 SCF Done:  E(UB3LYP) =  -724.409301040     A.U. after   14 cycles
 SCF Done:  E(UB3LYP) =  -724.410214252     A.U. after   12 cycles
 SCF Done:  E(UB3LYP) =  -724.410231103     A.U. after   13 cycles
 SCF Done:  E(UB3LYP) =  -724.410235440     A.U. after   12 cycles
 SCF Done:  E(UB3LYP) =  -724.410237594     A.U. after   12 cycles
 SCF Done:  E(UB3LYP) =  -724.410238405     A.U. after   12 cycles
 SCF Done:  E(UB3LYP) =  -724.410238691     A.U. after   12 cycles
 SCF Done:  E(UB3LYP) =  -724.410238738     A.U. after    9 cycles
 SCF Done:  E(UB3LYP) =  -724.410238759     A.U. after    9 cycles
 SCF Done:  E(UB3LYP) =  -724.410238760     A.U. after    8 cycles
 Optimization completed.
    -- Stationary point found.
 Normal termination of Gaussian 09 at Wed Mar  7 02:56:24 2018.

 ----------------------------------------------------------------------
 #P Geom=AllCheck Guess=TCheck SCRF=Check GenChk UB3LYP/Aug-CC-pVDZ Fre
 q
 ----------------------------------------------------------------------

 C13H18N4++-UB3LYP-aug-cc-pVDZ-Singlet
 -------------------------------------
 Redundant internal coordinates taken from checkpoint file:
 C13H18N4++-UB3LYP-aug-cc-pVDZ-Singlet.chk
 Charge =  2 Multiplicity = 1

                         Standard orientation:
 ---------------------------------------------------------------------
 Center     Atomic      Atomic             Coordinates (Angstroms)
 Number     Number       Type             X           Y           Z
 ---------------------------------------------------------------------
      1          6           0        4.087911    0.603733   -0.717377
      2          6           0        4.215101   -0.754744   -0.664224
      3          7           0        2.491415    0.271644    0.486712
      4          6           0        3.216753    1.329424    0.083341
      5          7           0        3.034930   -0.905513   -0.011272
      6          6           0        3.070282    2.777345    0.380620
      7          1           0        3.970102    3.311473    0.055283
      8          1           0        2.209166    3.206393   -0.150739
      9          1           0        2.939745    2.939560    1.458482
     10          6           0        5.056374   -1.836906   -1.224104
     11          1           0        5.177622   -1.697258   -2.305913
     12          1           0        6.051237   -1.808677   -0.759263
     13          1           0        4.590883   -2.806777   -1.023477
     14          6           0        1.250463    0.166604    1.260956
     15          1           0        1.191857    1.066354    1.885008
     16          1           0        1.396121   -0.699807    1.921314
     17          6           0       -0.000020   -0.000043    0.380786
     18          1           0       -0.125623    0.879818   -0.263675
     19          1           0        0.125550   -0.879402   -0.264370
     20          6           0       -1.250464   -0.167377    1.260875
     21          1           0       -1.396097    0.698513    1.921923
     22          1           0       -1.191818   -1.067613    1.884219
     23          7           0       -2.491424   -0.271900    0.486568
     24          6           0       -3.217026   -1.329457    0.083049
     25          6           0       -4.088068   -0.603401   -0.717445
     26          6           0       -4.214884    0.755089   -0.664175
     27          7           0       -3.034678    0.905462   -0.011160
     28          6           0       -3.070812   -2.777442    0.380147
     29          1           0       -2.209515   -3.206483   -0.150923
     30          1           0       -2.940746   -2.939826    1.458044
     31          1           0       -3.970539   -3.311451    0.054359
     32          6           0       -5.055877    1.837570   -1.223856
     33          1           0       -5.177186    1.698142   -2.305687
     34          1           0       -6.050741    1.809540   -0.759003
     35          1           0       -4.590114    2.807279   -1.023073
 ---------------------------------------------------------------------

 SCF Done:  E(UB3LYP) =  -724.410238760     A.U. after    2 cycles

 The electronic state is 1-A.
 Alpha  occ. eigenvalues --  -14.70996 -14.70995 -14.67289 -14.67289 -10.55058
 Alpha  occ. eigenvalues --  -10.55057 -10.53985 -10.53985 -10.53944 -10.53944
 Alpha  occ. eigenvalues --  -10.50405 -10.50403 -10.46089 -10.44906 -10.44906
 Alpha  occ. eigenvalues --  -10.43104 -10.43104  -1.35876  -1.35849  -1.16718
 Alpha  occ. eigenvalues --   -1.16216  -1.10169  -1.09223  -1.04939  -1.01055
 Alpha  occ. eigenvalues --   -0.98221  -0.97876  -0.97752  -0.94838  -0.90294
 Alpha  occ. eigenvalues --   -0.86917  -0.86679  -0.84112  -0.83685  -0.78538
 Alpha  occ. eigenvalues --   -0.77171  -0.75702  -0.74894  -0.73773  -0.71133
 Alpha  occ. eigenvalues --   -0.70200  -0.69583  -0.69252  -0.68420  -0.67410
 Alpha  occ. eigenvalues --   -0.67386  -0.67378  -0.65819  -0.65351  -0.65327
 Alpha  occ. eigenvalues --   -0.63754  -0.63577  -0.63389  -0.63048  -0.61625
 Alpha  occ. eigenvalues --   -0.59288  -0.58952  -0.54952  -0.53976  -0.53554
 Alpha  occ. eigenvalues --   -0.53395
 Alpha virt. eigenvalues --   -0.41645  -0.41626  -0.29010  -0.28282  -0.23539
 Alpha virt. eigenvalues --   -0.23332  -0.22308  -0.21124  -0.19946  -0.19602
 Alpha virt. eigenvalues --   -0.18624  -0.18183  -0.17914  -0.17263  -0.16788

  Beta  occ. eigenvalues --  -14.70996 -14.70995 -14.67289 -14.67289 -10.55058
  Beta  occ. eigenvalues --  -10.55057 -10.53985 -10.53985 -10.53944 -10.53944
  Beta  occ. eigenvalues --  -10.50405 -10.50403 -10.46089 -10.44906 -10.44906
  Beta  occ. eigenvalues --  -10.43104 -10.43104  -1.35876  -1.35849  -1.16718
  Beta  occ. eigenvalues --   -1.16216  -1.10169  -1.09223  -1.04939  -1.01055
  Beta  occ. eigenvalues --   -0.98221  -0.97876  -0.97752  -0.94838  -0.90294
  Beta  occ. eigenvalues --   -0.86917  -0.86679  -0.84112  -0.83685  -0.78538
  Beta  occ. eigenvalues --   -0.77171  -0.75702  -0.74894  -0.73773  -0.71133
  Beta  occ. eigenvalues --   -0.70200  -0.69583  -0.69252  -0.68420  -0.67410
  Beta  occ. eigenvalues --   -0.67386  -0.67378  -0.65819  -0.65351  -0.65327
  Beta  occ. eigenvalues --   -0.63754  -0.63577  -0.63389  -0.63048  -0.61625
  Beta  occ. eigenvalues --   -0.59288  -0.58952  -0.54952  -0.53976  -0.53554
  Beta  occ. eigenvalues --   -0.53395
  Beta virt. eigenvalues --   -0.41645  -0.41626  -0.29010  -0.28282  -0.23539
  Beta virt. eigenvalues --   -0.23332  -0.22308  -0.21124  -0.19946  -0.19602
  Beta virt. eigenvalues --   -0.18624  -0.18183  -0.17914  -0.17263  -0.16788

 Mulliken atomic charges:
              1
     1  C   -0.310289
     2  C   -0.170706
     3  N    0.288528
     4  C    0.061869
     5  N   -0.444259
     6  C    1.049943
     7  H   -0.242337
     8  H   -0.002678
     9  H   -0.174109
    10  C    1.097402
    11  H   -0.057941
    12  H   -0.032226
    13  H   -0.286120
    14  C    1.343566
    15  H   -0.647045
    16  H   -0.521242
    17  C    0.977519
    18  H   -0.441037
    19  H   -0.440930
    20  C    1.343364
    21  H   -0.521170
    22  H   -0.647253
    23  N    0.288473
    24  C    0.061815
    25  C   -0.309892
    26  C   -0.170822
    27  N   -0.444133
    28  C    1.049609
    29  H   -0.002729
    30  H   -0.173854
    31  H   -0.242357
    32  C    1.097294
    33  H   -0.057919
    34  H   -0.032205
    35  H   -0.286129
 Sum of Mulliken atomic charges =   2.00000

 Dipole moment (field-independent basis, Debye):
    X=             -0.0005    Y=              0.0001    Z=             -0.1209  Tot=              0.1209
 Quadrupole moment (field-independent basis, Debye-Ang):
   XX=             49.6851   YY=            -60.2971   ZZ=            -84.6488
   XY=              5.7149   XZ=              0.0011   YZ=             -0.0001

  Exact polarizability: 205.769 -10.305 188.625  -0.003  -0.001 135.666
 Approx polarizability: 289.149  27.261 336.919   0.001  -0.003 229.607

                     1                      2                      3
                     A                      A                      A
 Frequencies --    15.9976                23.3351                46.3702
 Red. masses --     3.7134                 3.7720                 4.5899
 Frc consts  --     0.0006                 0.0012                 0.0058
 IR Inten    --     0.3053                 0.7298                 1.9206

                     4                      5                      6
                     A                      A                      A
 Frequencies --    55.6499                85.7710                89.7195
 Red. masses --     3.6093                 1.1589                 1.0558
 Frc consts  --     0.0066                 0.0050                 0.0050
 IR Inten    --     0.0315                 0.4037                 0.6653

                     7                      8                      9
                     A                      A                      A
 Frequencies --    90.6780                99.8556                99.9682
 Red. masses --     1.6105                 1.0236                 1.1727
 Frc consts  --     0.0078                 0.0060                 0.0069
 IR Inten    --     0.1993                 0.0061                 0.2337

                    10                     11                     12
                     A                      A                      A
 Frequencies --   112.6705               141.0722               144.8839
 Red. masses --     2.8243                 3.9835                 5.0042
 Frc consts  --     0.0211                 0.0467                 0.0619
 IR Inten    --     1.7165                15.9251                 1.4293

                    13                     14                     15
                     A                      A                      A
 Frequencies --   181.5654               228.6205               236.4530
 Red. masses --     3.5397                 4.6367                 2.6174
 Frc consts  --     0.0688                 0.1428                 0.0862
 IR Inten    --     1.3612                 3.4993                 0.4956

                    16                     17                     18
                     A                      A                      A
 Frequencies --   244.6220               255.2563               287.1778
 Red. masses --     2.6732                 2.3100                 3.5724
 Frc consts  --     0.0942                 0.0887                 0.1736
 IR Inten    --     4.6322                 0.1381                 0.7942

                    19                     20                     21
                     A                      A                      A
 Frequencies --   312.0689               342.7800               355.7380
 Red. masses --     3.7636                 4.5266                 4.5275
 Frc consts  --     0.2159                 0.3134                 0.3376
 IR Inten    --     2.9707                 5.6534                 9.8746

                    22                     23                     24
                     A                      A                      A
 Frequencies --   362.0287               434.8260               457.7400
 Red. masses --     4.4072                 3.6736                 2.8778
 Frc consts  --     0.3403                 0.4092                 0.3553
 IR Inten    --    34.3194                10.9538                 0.2016

                    25                     26                     27
                     A                      A                      A
 Frequencies --   466.9890               558.3158               573.4415
 Red. masses --     3.4160                 5.3700                 5.2489
 Frc consts  --     0.4389                 0.9862                 1.0169
 IR Inten    --     0.6238                63.3071                 0.7552

                    28                     29                     30
                     A                      A                      A
 Frequencies --   587.2663               592.5510               655.2909
 Red. masses --     4.9073                 5.4043                 6.4631
 Frc consts  --     0.9972                 1.1180                 1.6352
 IR Inten    --    27.5316                 0.3318                 2.4889

                    31                     32                     33
                     A                      A                      A
 Frequencies --   667.6031               737.9461               775.3286
 Red. masses --     6.3896                 1.1348                 5.9645
 Frc consts  --     1.6779                 0.3641                 2.1125
 IR Inten    --     0.3421                 1.7261                29.9118

                    34                     35                     36
                     A                      A                      A
 Frequencies --   817.6845               827.7061               878.4358
 Red. masses --     3.6826                 1.7415                 3.0160
 Frc consts  --     1.4507                 0.7029                 1.3712
 IR Inten    --     5.3267                 0.2465                 1.2129

                    37                     38                     39
                     A                      A                      A
 Frequencies --   883.2819               928.4623               954.2920
 Red. masses --     2.7373                 2.9007                 2.4635
 Frc consts  --     1.2582                 1.4733                 1.3218
 IR Inten    --     1.8881                42.4661                 0.6592

                    40                     41                     42
                     A                      A                      A
 Frequencies --  1021.9492              1024.4279              1027.2753
 Red. masses --     2.5556                 2.2085                 1.9549
 Frc consts  --     1.5725                 1.3656                 1.2155
 IR Inten    --     2.8333                 2.1178                10.4330

                    43                     44                     45
                     A                      A                      A
 Frequencies --  1032.3028              1032.3451              1038.0954
 Red. masses --     1.4635                 1.4178                 1.5977
 Frc consts  --     0.9189                 0.8903                 1.0144
 IR Inten    --     4.5884                 8.8078                 0.9258

                    46                     47                     48
                     A                      A                      A
 Frequencies --  1041.0563              1050.6402              1057.1375
 Red. masses --     1.5983                 2.1266                 3.1099
 Frc consts  --     1.0206                 1.3831                 2.0476
 IR Inten    --     3.8635                 1.1537                 7.0939

                    49                     50                     51
                     A                      A                      A
 Frequencies --  1071.1751              1140.7928              1159.4544
 Red. masses --     2.2780                 3.0641                 3.6536
 Frc consts  --     1.5400                 2.3494                 2.8938
 IR Inten    --     0.0350                10.1814                 3.0603

                    52                     53                     54
                     A                      A                      A
 Frequencies --  1189.7732              1207.4776              1210.5412
 Red. masses --     2.9162                 4.1988                 4.9745
 Frc consts  --     2.4322                 3.6069                 4.2950
 IR Inten    --    27.7439                12.6250                22.6325

                    55                     56                     57
                     A                      A                      A
 Frequencies --  1267.7477              1279.8053              1328.2986
 Red. masses --     1.5783                 1.2485                 1.1623
 Frc consts  --     1.4945                 1.2049                 1.2083
 IR Inten    --     1.2067                 2.4551                 2.8283

                    58                     59                     60
                     A                      A                      A
 Frequencies --  1335.3513              1387.3353              1398.2226
 Red. masses --     1.3287                 1.2686                 1.6882
 Frc consts  --     1.3959                 1.4385                 1.9446
 IR Inten    --    33.2730                 1.7652                50.7976

                    61                     62                     63
                     A                      A                      A
 Frequencies --  1399.1636              1399.7355              1402.2055
 Red. masses --     1.5390                 1.4092                 1.3896
 Frc consts  --     1.7751                 1.6268                 1.6097
 IR Inten    --    15.9685                26.8583                 8.4687

                    64                     65                     66
                     A                      A                      A
 Frequencies --  1402.3862              1407.2644              1407.6287
 Red. masses --     1.5603                 1.2126                 1.2007
 Frc consts  --     1.8079                 1.4148                 1.4017
 IR Inten    --     2.8682                10.9914                 0.0626

                    67                     68                     69
                     A                      A                      A
 Frequencies --  1441.5318              1441.5508              1446.8407
 Red. masses --     1.0385                 1.0385                 1.0687
 Frc consts  --     1.2715                 1.2715                 1.3181
 IR Inten    --    17.7652                11.2129                 1.9117

                    70                     71                     72
                     A                      A                      A
 Frequencies --  1447.6730              1450.6727              1450.7892
 Red. masses --     1.0627                 1.0464                 1.0464
 Frc consts  --     1.3122                 1.2975                 1.2976
 IR Inten    --    11.9567                21.2044                 6.2739

                    73                     74                     75
                     A                      A                      A
 Frequencies --  1453.7147              1455.0136              1484.9243
 Red. masses --     1.0783                 1.0823                 1.1891
 Frc consts  --     1.3426                 1.3500                 1.5448
 IR Inten    --    14.9987                 9.6604                 6.3472

                    76                     77                     78
                     A                      A                      A
 Frequencies --  1486.3083              1487.5942              1559.8663
 Red. masses --     1.5595                 1.3968                 7.7258
 Frc consts  --     2.0298                 1.8212                11.0756
 IR Inten    --     8.5890                 8.3062                59.0727

                    79                     80                     81
                     A                      A                      A
 Frequencies --  1560.7351              1669.9566              1670.1645
 Red. masses --     7.9725                10.7383                10.6936
 Frc consts  --    11.4420                17.6439                17.5749
 IR Inten    --    15.8974                18.4952               143.7570

                    82                     83                     84
                     A                      A                      A
 Frequencies --  3047.1685              3047.1938              3055.6832
 Red. masses --     1.0371                 1.0372                 1.0360
 Frc consts  --     5.6737                 5.6741                 5.6992
 IR Inten    --     9.8497                 0.1846                17.4434

                    85                     86                     87
                     A                      A                      A
 Frequencies --  3055.7080              3056.6457              3061.3833
 Red. masses --     1.0360                 1.0606                 1.0620
 Frc consts  --     5.6994                 5.8386                 5.8642
 IR Inten    --     2.3167                 0.4887                 1.4913

                    88                     89                     90
                     A                      A                      A
 Frequencies --  3069.1715              3106.7683              3120.1159
 Red. masses --     1.0603                 1.1047                 1.1010
 Frc consts  --     5.8848                 6.2822                 6.3153
 IR Inten    --     2.0411                 1.1071                 0.1811

                    91                     92                     93
                     A                      A                      A
 Frequencies --  3120.1204              3126.3463              3128.7840
 Red. masses --     1.1010                 1.1048                 1.1015
 Frc consts  --     6.3153                 6.3622                 6.3533
 IR Inten    --     0.1868                 1.2039                 2.0112

                    94                     95                     96
                     A                      A                      A
 Frequencies --  3128.7891              3135.6675              3146.6710
 Red. masses --     1.1015                 1.1065                 1.1028
 Frc consts  --     6.3533                 6.4098                 6.4335
 IR Inten    --     2.4352                 0.7683                 0.1192

                    97                     98                     99
                     A                      A                      A
 Frequencies --  3146.6914              3166.5541              3166.5590
 Red. masses --     1.1028                 1.1037                 1.1037
 Frc consts  --     6.4336                 6.5204                 6.5204
 IR Inten    --     0.4826                 3.8875                 1.4389

 - Thermochemistry -
 -------------------
 Temperature   298.150 Kelvin.  Pressure   1.00000 Atm.
 Atom     1 has atomic number  6 and mass  12.00000

 Molecular mass:   230.15315 amu.
 Principal axes and moments of inertia in atomic units:
                           1         2         3
     Eigenvalues --  2114.641469867.83465**********
           X            0.99999  -0.00325   0.00000
           Y            0.00325   0.99999   0.00000
           Z            0.00000   0.00000   1.00000
 This molecule is an asymmetric top.
 Rotational symmetry number  1.
 Warning -- assumption of classical behavior for rotation
           may cause significant error
 Rotational temperatures (Kelvin)      0.04096     0.00878     0.00790
 Rotational constants (GHZ):           0.85345     0.18289     0.16456
 Zero-point vibrational energy     757968.2 (Joules/Mol)
                                  181.15875 (Kcal/Mol)
 Warning -- explicit consideration of  29 degrees of freedom as
           vibrations may cause significant error
 Vibrational temperatures:     23.02    33.57    66.72    80.07   123.41
          (Kelvin)            129.09   130.47   143.67   143.83   162.11
                              202.97   208.46   261.23   328.93   340.20
                              351.96   367.26   413.18   449.00   493.18
                              511.83   520.88   625.62   658.58   671.89
                              803.29   825.05   844.94   852.55   942.82
                              960.53  1061.74  1115.52  1176.46  1190.88
                             1263.87  1270.84  1335.85  1373.01  1470.36
                             1473.92  1478.02  1485.25  1485.31  1493.59
                             1497.85  1511.63  1520.98  1541.18  1641.34
                             1668.19  1711.82  1737.29  1741.70  1824.00
                             1841.35  1911.12  1921.27  1996.06  2011.73
                             2013.08  2013.90  2017.46  2017.72  2024.74
                             2025.26  2074.04  2074.07  2081.68  2082.88
                             2087.19  2087.36  2091.57  2093.44  2136.47
                             2138.46  2140.31  2244.30  2245.55  2402.69
                             2402.99  4384.19  4384.23  4396.44  4396.48
                             4397.83  4404.64  4415.85  4469.94  4489.15
                             4489.15  4498.11  4501.62  4501.62  4511.52
                             4527.35  4527.38  4555.96  4555.97

 Zero-point correction=                           0.288695 (Hartree/Particle)
 Thermal correction to Energy=                    0.308113
 Thermal correction to Enthalpy=                  0.309057
 Thermal correction to Gibbs Free Energy=         0.238076
 Sum of electronic and zero-point Energies=           -724.121544
 Sum of electronic and thermal Energies=              -724.102126
 Sum of electronic and thermal Enthalpies=            -724.101182
 Sum of electronic and thermal Free Energies=         -724.172163

                     E (Thermal)             CV                S
                      KCal/Mol        Cal/Mol-Kelvin    Cal/Mol-Kelvin
 Total                  193.344             68.296            149.392
 Electronic               0.000              0.000              0.000
 Translational            0.889              2.981             42.203
 Rotational               0.889              2.981             33.792
 Vibrational            191.566             62.334             73.397
 Vibration     1          0.593              1.986              7.078
 Vibration     2          0.593              1.985              6.328
 Vibration     3          0.595              1.979              4.966
 Vibration     4          0.596              1.975              4.606
 Vibration     5          0.601              1.959              3.754
 Vibration     6          0.602              1.956              3.666
 Vibration     7          0.602              1.956              3.645
 Vibration     8          0.604              1.949              3.457
 Vibration     9          0.604              1.949              3.455
 Vibration    10          0.607              1.939              3.222
 Vibration    11          0.615              1.912              2.789
 Vibration    12          0.616              1.908              2.738
 Vibration    13          0.630              1.865              2.312
 Vibration    14          0.651              1.797              1.890
 Vibration    15          0.655              1.785              1.829
 Vibration    16          0.660              1.772              1.769
 Vibration    17          0.666              1.754              1.694
 Vibration    18          0.684              1.698              1.491
 Vibration    19          0.700              1.651              1.351
 Vibration    20          0.722              1.590              1.199
 Vibration    21          0.731              1.563              1.141
 Vibration    22          0.736              1.550              1.113
 Vibration    23          0.795              1.394              0.843
 Vibration    24          0.816              1.344              0.773
 Vibration    25          0.824              1.323              0.746
 Vibration    26          0.914              1.122              0.527
 Vibration    27          0.930              1.089              0.498
 Vibration    28          0.944              1.059              0.472
 Vibration    29          0.950              1.048              0.463

 Normal termination of Gaussian 09 at Wed Mar  7 07:57:57 2018.
