 Gaussian 09, Revision B.01,
 Gaussian 09:  EM64L-G09RevB.01 12-Aug-2010

 -------------------------------------------------
 #p Temperature=298.15 opt freq UB3LYP/aug-cc-pVDZ
 -------------------------------------------------

 -----------------------------------
 C13H18N8-UB3LYP-aug-cc-pVDZ-Doublet
 -----------------------------------
 Symbolic Z-matrix:
 Charge =  0 Multiplicity = 3

 SCF Done:  E(UB3LYP) =  -943.178902828     A.U. after   37 cycles
 SCF Done:  E(UB3LYP) =  -943.421474340     A.U. after   31 cycles
 SCF Done:  E(UB3LYP) =  -943.730777936     A.U. after   31 cycles
 SCF Done:  E(UB3LYP) =  -943.932987732     A.U. after   29 cycles
 SCF Done:  E(UB3LYP) =  -944.047613243     A.U. after   30 cycles
 SCF Done:  E(UB3LYP) =  -944.125549385     A.U. after   29 cycles
 SCF Done:  E(UB3LYP) =  -944.167126298     A.U. after   29 cycles
 SCF Done:  E(UB3LYP) =  -944.189176315     A.U. after   28 cycles
 SCF Done:  E(UB3LYP) =  -944.204458678     A.U. after   27 cycles
 SCF Done:  E(UB3LYP) =  -944.211262878     A.U. after   27 cycles
 SCF Done:  E(UB3LYP) =  -944.217390760     A.U. after   15 cycles
 SCF Done:  E(UB3LYP) =  -944.217277303     A.U. after   17 cycles
 SCF Done:  E(UB3LYP) =  -944.217428844     A.U. after   16 cycles
 SCF Done:  E(UB3LYP) =  -944.217433066     A.U. after   21 cycles
 SCF Done:  E(UB3LYP) =  -944.217436315     A.U. after   14 cycles
 SCF Done:  E(UB3LYP) =  -944.217437665     A.U. after   17 cycles
 SCF Done:  E(UB3LYP) =  -944.217437913     A.U. after   13 cycles
 SCF Done:  E(UB3LYP) =  -944.217438021     A.U. after   12 cycles
 SCF Done:  E(UB3LYP) =  -944.217438146     A.U. after   11 cycles
 Optimization completed.
    -- Stationary point found.
 Normal termination of Gaussian 09 at Mon Feb 28 16:35:05 2005.

 ----------------------------------------------------------------------
 #P Geom=AllCheck Guess=TCheck SCRF=Check GenChk UB3LYP/Aug-CC-pVDZ Fre
 q
 ----------------------------------------------------------------------

 C13H18N8-UB3LYP-aug-cc-pVDZ-Doublet
 -----------------------------------
 Redundant internal coordinates taken from checkpoint file:
 C13H18N8-UB3LYP-aug-cc-pVDZ-Doublet.chk
 Charge =  0 Multiplicity = 3

                         Standard orientation:
 ---------------------------------------------------------------------
 Center     Atomic      Atomic             Coordinates (Angstroms)
 Number     Number       Type             X           Y           Z
 ---------------------------------------------------------------------
      1          7           0        5.370519    0.745402   -1.140803
      2          7           0        5.712280    1.886108   -1.101907
      3          6           0        4.272307    0.157508   -0.463624
      4          6           0        3.955779   -1.226637   -0.535116
      5          7           0        2.509163   -0.285093    0.744358
      6          6           0        3.310352    0.742163    0.370306
      7          7           0        2.879218   -1.483136    0.202523
      8          6           0        3.124700    2.155567    0.816839
      9          1           0        3.836165    2.800449    0.292275
     10          1           0        2.107898    2.516458    0.607368
     11          1           0        3.305480    2.260687    1.897156
     12          6           0        4.666851   -2.306955   -1.286003
     13          1           0        4.692885   -2.087288   -2.362087
     14          1           0        5.707917   -2.402982   -0.948308
     15          1           0        4.154015   -3.262377   -1.130143
     16          6           0        1.304783   -0.236990    1.560325
     17          1           0        1.388917    0.618676    2.241853
     18          1           0        1.299729   -1.152627    2.164635
     19          6           0        0.029680   -0.136918    0.714644
     20          1           0        0.031393    0.798262    0.139362
     21          1           0        0.012677   -0.968165   -0.002469
     22          6           0       -1.225793   -0.174687    1.594376
     23          1           0       -1.196029    0.623231    2.347029
     24          1           0       -1.304770   -1.134227    2.120424
     25          7           0       -2.446633    0.019069    0.827590
     26          6           0       -3.282872   -0.919006    0.320583
     27          6           0       -4.245891   -0.201714   -0.389570
     28          6           0       -3.901570    1.178280   -0.259686
     29          7           0       -2.802963    1.291866    0.480035
     30          6           0       -3.143683   -2.390613    0.530812
     31          1           0       -2.188858   -2.770255    0.140359
     32          1           0       -3.202145   -2.654054    1.596927
     33          1           0       -3.956979   -2.904000    0.007314
     34          6           0       -4.597822    2.376781   -0.816688
     35          1           0       -4.644014    2.331000   -1.913602
     36          1           0       -5.634650    2.432687   -0.457129
     37          1           0       -4.063796    3.285394   -0.516815
     38          7           0       -5.322606   -0.824248   -1.065385
     39          7           0       -6.177086   -0.268760   -1.684605
 ---------------------------------------------------------------------

 SCF Done:  E(UB3LYP) =  -944.217438146     A.U. after    6 cycles

 The electronic state is 3-A.
 Alpha  occ. eigenvalues --  -14.42825 -14.42702 -14.41570 -14.41406 -14.38708
 Alpha  occ. eigenvalues --  -14.38581 -14.36444 -14.36270 -10.25786 -10.25766
 Alpha  occ. eigenvalues --  -10.25613 -10.25433 -10.23420 -10.23281 -10.23251
 Alpha  occ. eigenvalues --  -10.23185 -10.21881 -10.21813 -10.21607 -10.19477
 Alpha  occ. eigenvalues --  -10.19350  -1.07417  -1.07362  -1.06075  -1.05976
 Alpha  occ. eigenvalues --   -0.88931  -0.87676  -0.84235  -0.83667  -0.80459
 Alpha  occ. eigenvalues --   -0.76173  -0.74880  -0.74828  -0.72678  -0.71240
 Alpha  occ. eigenvalues --   -0.69254  -0.65237  -0.63322  -0.58618  -0.57705
 Alpha  occ. eigenvalues --   -0.57341  -0.56061  -0.52763  -0.51423  -0.50767
 Alpha  occ. eigenvalues --   -0.48843  -0.48455  -0.47395  -0.46662  -0.45311
 Alpha  occ. eigenvalues --   -0.45117  -0.44228  -0.44043  -0.43936  -0.43612
 Alpha  occ. eigenvalues --   -0.42931  -0.42468  -0.42385  -0.42037  -0.41725
 Alpha  occ. eigenvalues --   -0.41578  -0.41562  -0.40618  -0.40212  -0.38866
 Alpha  occ. eigenvalues --   -0.38745  -0.38210  -0.37904  -0.37458  -0.31521
 Alpha  occ. eigenvalues --   -0.31154  -0.27070  -0.26539  -0.26405  -0.25926
 Alpha  occ. eigenvalues --   -0.20087  -0.20016
 Alpha virt. eigenvalues --   -0.06329  -0.05653  -0.02589  -0.01577  -0.01369
 Alpha virt. eigenvalues --   -0.00761  -0.00523  -0.00458   0.00419   0.01059
 Alpha virt. eigenvalues --    0.01192   0.01860   0.02033   0.02818   0.02983

  Beta  occ. eigenvalues --  -14.42824 -14.42705 -14.41165 -14.41028 -14.37131
  Beta  occ. eigenvalues --  -14.36980 -14.36431 -14.36264 -10.25785 -10.25761
  Beta  occ. eigenvalues --  -10.25610 -10.25467 -10.23409 -10.23218 -10.22957
  Beta  occ. eigenvalues --  -10.22938 -10.21883 -10.21806 -10.21590 -10.19474
  Beta  occ. eigenvalues --  -10.19345  -1.07246  -1.07188  -1.04401  -1.04282
  Beta  occ. eigenvalues --   -0.88885  -0.87631  -0.83985  -0.83272  -0.80069
  Beta  occ. eigenvalues --   -0.75809  -0.74429  -0.74331  -0.72644  -0.70764
  Beta  occ. eigenvalues --   -0.68359  -0.64679  -0.63163  -0.58237  -0.57211
  Beta  occ. eigenvalues --   -0.57021  -0.55684  -0.52376  -0.51386  -0.50765
  Beta  occ. eigenvalues --   -0.48420  -0.48269  -0.45946  -0.45432  -0.44589
  Beta  occ. eigenvalues --   -0.44049  -0.43933  -0.43881  -0.42958  -0.42563
  Beta  occ. eigenvalues --   -0.42214  -0.41855  -0.41775  -0.41603  -0.41430
  Beta  occ. eigenvalues --   -0.40978  -0.40622  -0.39616  -0.39494  -0.38699
  Beta  occ. eigenvalues --   -0.38662  -0.37441  -0.36185  -0.36002  -0.31058
  Beta  occ. eigenvalues --   -0.30934  -0.27050  -0.26540  -0.26004  -0.25470
  Beta virt. eigenvalues --   -0.05849  -0.05693  -0.05305  -0.04525  -0.02534
  Beta virt. eigenvalues --   -0.01531  -0.01353  -0.00753  -0.00499  -0.00407
  Beta virt. eigenvalues --    0.00434   0.01072   0.01218   0.01890   0.02034

 Mulliken atomic charges:
              1
     1  N   -0.022690
     2  N   -0.638337
     3  C    0.862121
     4  C   -1.039647
     5  N    0.364689
     6  C   -0.337317
     7  N   -0.545694
     8  C    1.002546
     9  H   -0.332509
    10  H   -0.109275
    11  H   -0.125296
    12  C    1.297693
    13  H   -0.127836
    14  H   -0.123168
    15  H   -0.410681
    16  C    1.497536
    17  H   -0.659459
    18  H   -0.612358
    19  C    1.018811
    20  H   -0.454688
    21  H   -0.462459
    22  C    1.562795
    23  H   -0.615801
    24  H   -0.650224
    25  N    0.309797
    26  C   -0.976964
    27  C    1.176009
    28  C   -0.778290
    29  N   -0.493070
    30  C    0.994836
    31  H   -0.085329
    32  H   -0.116874
    33  H   -0.346744
    34  C    1.259224
    35  H   -0.121380
    36  H   -0.119734
    37  H   -0.427919
    38  N    0.056381
    39  N   -0.668694
 Sum of Mulliken atomic charges =   0.00000

 Dipole moment (field-independent basis, Debye):
    X=              0.2908    Y=             -1.2723    Z=              4.1367  Tot=              4.3377
 Quadrupole moment (field-independent basis, Debye-Ang):
   XX=           -173.0843   YY=           -124.2167   ZZ=           -123.7625
   XY=             -7.0814   XZ=             -3.0115   YZ=              1.1733

  Exact polarizability: 274.023   5.021 224.762   5.190  -0.740 174.761
 Approx polarizability: 359.412  17.860 351.898  14.052  -5.707 282.970

                     1                      2                      3
                     A                      A                      A
 Frequencies --    14.4445                16.9599                24.4566
 Red. masses --     4.8835                 4.5837                 6.3018
 Frc consts  --     0.0006                 0.0008                 0.0022
 IR Inten    --     0.1280                 0.8085                 1.0042

                     4                      5                      6
                     A                      A                      A
 Frequencies --    50.6880                60.8598                73.7415
 Red. masses --     4.2664                 6.5142                 1.1322
 Frc consts  --     0.0065                 0.0142                 0.0036
 IR Inten    --     0.0633                 0.8007                 0.0354

                     7                      8                      9
                     A                      A                      A
 Frequencies --    87.5644               104.1053               105.8013
 Red. masses --     1.0276                 3.4079                 2.1456
 Frc consts  --     0.0046                 0.0218                 0.0142
 IR Inten    --     0.2216                 2.5331                 0.7820

                    10                     11                     12
                     A                      A                      A
 Frequencies --   122.2077               128.5310               133.7711
 Red. masses --     1.2805                 2.1633                 1.1433
 Frc consts  --     0.0113                 0.0211                 0.0121
 IR Inten    --     0.3740                 2.1087                 0.1388

                    13                     14                     15
                     A                      A                      A
 Frequencies --   172.7705               177.1750               179.4083
 Red. masses --     4.5579                 5.5606                 4.3901
 Frc consts  --     0.0802                 0.1028                 0.0833
 IR Inten    --     0.2909                 2.1815                 1.9431

                    16                     17                     18
                     A                      A                      A
 Frequencies --   188.5242               205.4776               213.8790
 Red. masses --     3.5713                 4.9452                 4.7049
 Frc consts  --     0.0748                 0.1230                 0.1268
 IR Inten    --     2.6716                 2.4547                 3.4005

                    19                     20                     21
                     A                      A                      A
 Frequencies --   257.8784               265.6656               277.8492
 Red. masses --     2.7647                 2.8640                 2.5389
 Frc consts  --     0.1083                 0.1191                 0.1155
 IR Inten    --     5.9415                 2.5884                 1.0484

                    22                     23                     24
                     A                      A                      A
 Frequencies --   286.4468               294.4011               307.7178
 Red. masses --     5.9237                 2.5347                 4.7910
 Frc consts  --     0.2864                 0.1294                 0.2673
 IR Inten    --     1.2072                 1.1299                 2.4274

                    25                     26                     27
                     A                      A                      A
 Frequencies --   329.8790               364.1751               400.0797
 Red. masses --     5.8045                 4.7235                 5.3383
 Frc consts  --     0.3722                 0.3691                 0.5034
 IR Inten    --     2.9821                 0.1168                10.6926

                    28                     29                     30
                     A                      A                      A
 Frequencies --   414.2145               457.6225               540.8357
 Red. masses --     5.4527                 4.2550                 4.3344
 Frc consts  --     0.5512                 0.5250                 0.7470
 IR Inten    --     3.8822                 3.7128                 2.9148

                    31                     32                     33
                     A                      A                      A
 Frequencies --   553.2135               598.9814               605.0392
 Red. masses --     4.4390                 3.9984                 3.8892
 Frc consts  --     0.8004                 0.8452                 0.8388
 IR Inten    --     1.7154                 9.1306                 9.1050

                    34                     35                     36
                     A                      A                      A
 Frequencies --   631.9874               649.1387               671.2668
 Red. masses --     4.9709                 5.9203                 6.2500
 Frc consts  --     1.1698                 1.4698                 1.6593
 IR Inten    --     3.5566                 2.2449                 0.5599

                    37                     38                     39
                     A                      A                      A
 Frequencies --   681.0236               687.8938               688.1932
 Red. masses --     5.2301                 5.3669                 5.3319
 Frc consts  --     1.4292                 1.4963                 1.4878
 IR Inten    --     8.0240                 2.2928                 2.1033

                    40                     41                     42
                     A                      A                      A
 Frequencies --   710.3415               736.7221               746.6339
 Red. masses --     4.4911                 4.3265                 1.2447
 Frc consts  --     1.3352                 1.3836                 0.4088
 IR Inten    --    48.3059                19.1241                 4.8808

                    43                     44                     45
                     A                      A                      A
 Frequencies --   853.4779               866.9754               893.8255
 Red. masses --     1.4054                 3.2653                 2.8930
 Frc consts  --     0.6032                 1.4460                 1.3618
 IR Inten    --     0.3341                 5.2225                 5.8628

                    46                     47                     48
                     A                      A                      A
 Frequencies --  1001.7446              1007.1627              1035.9585
 Red. masses --     1.7725                 1.7559                 2.2869
 Frc consts  --     1.0480                 1.0494                 1.4460
 IR Inten    --    28.7131                 1.7705                 1.5909

                    49                     50                     51
                     A                      A                      A
 Frequencies --  1041.8443              1042.9817              1046.6888
 Red. masses --     1.9671                 2.1821                 1.5723
 Frc consts  --     1.2580                 1.3986                 1.0149
 IR Inten    --     9.4202                 8.3940                 2.1782

                    52                     53                     54
                     A                      A                      A
 Frequencies --  1047.0128              1050.0144              1050.7705
 Red. masses --     1.5013                 1.5277                 1.5180
 Frc consts  --     0.9697                 0.9924                 0.9875
 IR Inten    --     0.5969                 0.5064                 0.9430

                    55                     56                     57
                     A                      A                      A
 Frequencies --  1058.6460              1065.4482              1091.1017
 Red. masses --     2.5070                 4.7011                 2.4179
 Frc consts  --     1.6554                 3.1442                 1.6960
 IR Inten    --     1.5048                 9.4096                 0.5653

                    58                     59                     60
                     A                      A                      A
 Frequencies --  1153.1260              1173.6148              1213.4000
 Red. masses --     3.4393                 3.4447                 3.7053
 Frc consts  --     2.6945                 2.7955                 3.2142
 IR Inten    --     1.1273                 0.2157                 5.7309

                    61                     62                     63
                     A                      A                      A
 Frequencies --  1244.9164              1271.3815              1275.8942
 Red. masses --     2.6490                 2.2633                 1.6417
 Frc consts  --     2.4189                 2.1555                 1.5746
 IR Inten    --     0.2862                 0.5913                 0.2607

                    64                     65                     66
                     A                      A                      A
 Frequencies --  1296.5475              1332.0283              1340.7469
 Red. masses --     2.0358                 1.4557                 1.6096
 Frc consts  --     2.0164                 1.5218                 1.7047
 IR Inten    --     1.5054                 1.8174                15.9637

                    67                     68                     69
                     A                      A                      A
 Frequencies --  1385.3429              1392.0819              1393.3027
 Red. masses --     1.3561                 1.3343                 1.2599
 Frc consts  --     1.5334                 1.5234                 1.4411
 IR Inten    --     6.0140                 5.1851                 2.0003

                    70                     71                     72
                     A                      A                      A
 Frequencies --  1400.0952              1400.4258              1401.3743
 Red. masses --     1.3131                 1.3482                 1.3623
 Frc consts  --     1.5166                 1.5578                 1.5762
 IR Inten    --     4.7697                30.9225                22.9518

                    73                     74                     75
                     A                      A                      A
 Frequencies --  1419.9693              1427.5580              1439.1489
 Red. masses --     2.4255                 2.3831                 1.4321
 Frc consts  --     2.8815                 2.8614                 1.7476
 IR Inten    --    25.4403                19.4776               104.0812

                    76                     77                     78
                     A                      A                      A
 Frequencies --  1444.4670              1455.0959              1457.7848
 Red. masses --     1.4117                 1.0419                 1.0419
 Frc consts  --     1.7355                 1.2997                 1.3046
 IR Inten    --    62.5381                 8.4181                 7.7049

                    79                     80                     81
                     A                      A                      A
 Frequencies --  1463.8073              1466.7408              1467.5809
 Red. masses --     1.1078                 1.0595                 1.1354
 Frc consts  --     1.3986                 1.3430                 1.4408
 IR Inten    --     5.0183                 5.1029                24.1352

                    82                     83                     84
                     A                      A                      A
 Frequencies --  1468.8951              1472.0813              1483.7508
 Red. masses --     1.5024                 1.0587                 1.4699
 Frc consts  --     1.9099                 1.3517                 1.9066
 IR Inten    --     3.5420                 3.5635                 7.8761

                    85                     86                     87
                     A                      A                      A
 Frequencies --  1490.0603              1503.3333              1504.5288
 Red. masses --     1.1579                 2.6731                 2.3514
 Frc consts  --     1.5147                 3.5594                 3.1361
 IR Inten    --     6.4650                21.0840                14.0422

                    88                     89                     90
                     A                      A                      A
 Frequencies --  1528.7847              1532.2984              1571.7185
 Red. masses --     4.9149                 5.5776                 7.5041
 Frc consts  --     6.7680                 7.7159                10.9219
 IR Inten    --    69.2992                55.6665                48.3602

                    91                     92                     93
                     A                      A                      A
 Frequencies --  1594.3557              1807.9116              1814.9559
 Red. masses --     7.6696                13.9040                13.8850
 Frc consts  --    11.4867                26.7760                26.9480
 IR Inten    --    36.9165                38.4216                47.3166

                    94                     95                     96
                     A                      A                      A
 Frequencies --  3028.9358              3031.2064              3039.6983
 Red. masses --     1.0406                 1.0392                 1.0365
 Frc consts  --     5.6247                 5.6256                 5.6425
 IR Inten    --    16.8665                19.0302                13.7355

                    97                     98                     99
                     A                      A                      A
 Frequencies --  3042.5155              3055.2357              3062.9742
 Red. masses --     1.0367                 1.0591                 1.0586
 Frc consts  --     5.6544                 5.8247                 5.8514
 IR Inten    --    19.0677                 1.9140                 6.7095

                   100                    101                    102
                     A                      A                      A
 Frequencies --  3071.2186              3086.1881              3088.2923
 Red. masses --     1.0588                 1.0997                 1.1008
 Frc consts  --     5.8844                 6.1712                 6.1858
 IR Inten    --    51.8723                10.0651                 9.4523

                   103                    104                    105
                     A                      A                      A
 Frequencies --  3096.3031              3097.8264              3101.4350
 Red. masses --     1.1042                 1.0999                 1.1004
 Frc consts  --     6.2372                 6.2188                 6.2362
 IR Inten    --     0.1811                 8.4503                 9.6272

                   106                    107                    108
                     A                      A                      A
 Frequencies --  3112.9812              3126.5354              3135.2091
 Red. masses --     1.1067                 1.1075                 1.1025
 Frc consts  --     6.3190                 6.3787                 6.3847
 IR Inten    --     0.0508                19.7678                 9.9280

                   109                    110                    111
                     A                      A                      A
 Frequencies --  3137.6875              3139.8717              3146.3344
 Red. masses --     1.1020                 1.0986                 1.0981
 Frc consts  --     6.3920                 6.3812                 6.4050
 IR Inten    --     8.2946                 2.6145                 0.5707

 - Thermochemistry -
 -------------------
 Temperature   298.150 Kelvin.  Pressure   1.00000 Atm.
 Atom     1 has atomic number  7 and mass  14.00307

 Molecular mass:   286.16544 amu.
 Principal axes and moments of inertia in atomic units:
                           1         2         3
     Eigenvalues --  2824.06994********************
           X            0.99998  -0.00671  -0.00110
           Y            0.00672   0.99988   0.01418
           Z            0.00100  -0.01418   0.99990
 This molecule is an asymmetric top.
 Rotational symmetry number  1.
 Warning -- assumption of classical behavior for rotation
           may cause significant error
 Rotational temperatures (Kelvin)      0.03067     0.00536     0.00507
 Rotational constants (GHZ):           0.63906     0.11171     0.10571
 Zero-point vibrational energy     816216.7 (Joules/Mol)
                                  195.08047 (Kcal/Mol)
 Warning -- explicit consideration of  33 degrees of freedom as
           vibrations may cause significant error
 Vibrational temperatures:     20.78    24.40    35.19    72.93    87.56
          (Kelvin)            106.10   125.99   149.78   152.22   175.83
                              184.93   192.47   248.58   254.91   258.13
                              271.24   295.64   307.72   371.03   382.23
                              399.76   412.13   423.58   442.74   474.62
                              523.97   575.62   595.96   658.42   778.14
                              795.95   861.80   870.52   909.29   933.96
                              965.80   979.84   989.72   990.16  1022.02
                             1059.98  1074.24  1227.96  1247.38  1286.01
                             1441.29  1449.08  1490.51  1498.98  1500.62
                             1505.95  1506.42  1510.73  1511.82  1523.15
                             1532.94  1569.85  1659.09  1688.57  1745.81
                             1791.15  1829.23  1835.72  1865.44  1916.49
                             1929.03  1993.20  2002.89  2004.65  2014.42
                             2014.90  2016.26  2043.02  2053.94  2070.61
                             2078.26  2093.56  2097.42  2106.09  2110.31
                             2111.52  2113.41  2117.99  2134.78  2143.86
                             2162.96  2164.68  2199.58  2204.63  2261.35
                             2293.92  2601.18  2611.31  4357.96  4361.22
                             4373.44  4377.50  4395.80  4406.93  4418.79
                             4440.33  4443.36  4454.88  4457.08  4462.27
                             4478.88  4498.38  4510.86  4514.43  4517.57
                             4526.87

 Zero-point correction=                           0.310881 (Hartree/Particle)
 Thermal correction to Energy=                    0.333420
 Thermal correction to Enthalpy=                  0.334364
 Thermal correction to Gibbs Free Energy=         0.254671
 Sum of electronic and zero-point Energies=           -943.906558
 Sum of electronic and thermal Energies=              -943.884018
 Sum of electronic and thermal Enthalpies=            -943.883074
 Sum of electronic and thermal Free Energies=         -943.962767

                     E (Thermal)             CV                S
                      KCal/Mol        Cal/Mol-Kelvin    Cal/Mol-Kelvin
 Total                  209.224             79.632            167.728
 Electronic               0.000              0.000              2.183
 Translational            0.889              2.981             42.852
 Rotational               0.889              2.981             35.009
 Vibrational            207.447             73.671             87.683
 Vibration     1          0.593              1.986              7.281
 Vibration     2          0.593              1.986              6.962
 Vibration     3          0.593              1.985              6.235
 Vibration     4          0.595              1.977              4.790
 Vibration     5          0.597              1.973              4.429
 Vibration     6          0.599              1.966              4.051
 Vibration     7          0.601              1.958              3.714
 Vibration     8          0.605              1.946              3.376
 Vibration     9          0.605              1.945              3.345
 Vibration    10          0.610              1.931              3.065
 Vibration    11          0.611              1.925              2.968
 Vibration    12          0.613              1.920              2.891
 Vibration    13          0.626              1.876              2.405
 Vibration    14          0.628              1.870              2.358
 Vibration    15          0.629              1.868              2.335
 Vibration    16          0.633              1.856              2.242
 Vibration    17          0.640              1.832              2.083
 Vibration    18          0.644              1.820              2.010
 Vibration    19          0.667              1.749              1.676
 Vibration    20          0.671              1.736              1.624
 Vibration    21          0.679              1.714              1.547
 Vibration    22          0.684              1.699              1.495
 Vibration    23          0.689              1.684              1.449
 Vibration    24          0.698              1.659              1.375
 Vibration    25          0.713              1.616              1.261
 Vibration    26          0.738              1.546              1.104
 Vibration    27          0.766              1.470              0.962
 Vibration    28          0.778              1.439              0.912
 Vibration    29          0.816              1.344              0.773
 Vibration    30          0.896              1.160              0.563
 Vibration    31          0.909              1.133              0.538
 Vibration    32          0.957              1.034              0.451
 Vibration    33          0.964              1.021              0.441

 Normal termination of Gaussian 09 at Tue Mar  1 01:58:57 2005.
