 Gaussian 09, Revision B.01,
 Gaussian 09:  EM64L-G09RevB.01 12-Aug-2010

 -------------------------------------------------
 #p Temperature=298.15 opt freq UB3LYP/aug-cc-pVDZ
 -------------------------------------------------

 -----------------------------------
 C13H18N4-UB3LYP-aug-cc-pVDZ-Doublet
 -----------------------------------
 Symbolic Z-matrix:
 Charge =  0 Multiplicity = 3

 SCF Done:  E(UB3LYP) =  -724.013594149     A.U. after   54 cycles
 SCF Done:  E(UB3LYP) =  -724.290117810     A.U. after   37 cycles
 SCF Done:  E(UB3LYP) =  -724.634522128     A.U. after   25 cycles
 SCF Done:  E(UB3LYP) =  -724.834618614     A.U. after   26 cycles
 SCF Done:  E(UB3LYP) =  -724.954218964     A.U. after   19 cycles
 SCF Done:  E(UB3LYP) =  -725.063002729     A.U. after   26 cycles
 SCF Done:  E(UB3LYP) =  -725.092608885     A.U. after   17 cycles
 SCF Done:  E(UB3LYP) =  -725.100288649     A.U. after   16 cycles
 SCF Done:  E(UB3LYP) =  -725.103854436     A.U. after   26 cycles
 SCF Done:  E(UB3LYP) =  -725.105655411     A.U. after   19 cycles
 SCF Done:  E(UB3LYP) =  -725.109407945     A.U. after   28 cycles
 SCF Done:  E(UB3LYP) =  -725.109411800     A.U. after   12 cycles
 SCF Done:  E(UB3LYP) =  -725.109419117     A.U. after   13 cycles
 SCF Done:  E(UB3LYP) =  -725.109423987     A.U. after   13 cycles
 SCF Done:  E(UB3LYP) =  -725.109426047     A.U. after   13 cycles
 SCF Done:  E(UB3LYP) =  -725.109427061     A.U. after   11 cycles
 SCF Done:  E(UB3LYP) =  -725.109427350     A.U. after   12 cycles
 SCF Done:  E(UB3LYP) =  -725.109427436     A.U. after   11 cycles
 SCF Done:  E(UB3LYP) =  -725.109427458     A.U. after   10 cycles
 Optimization completed.
    -- Stationary point found.
 Normal termination of Gaussian 09 at Thu Feb 24 20:18:08 2005.

 ----------------------------------------------------------------------
 #P Geom=AllCheck Guess=TCheck SCRF=Check GenChk UB3LYP/Aug-CC-pVDZ Fre
 q
 ----------------------------------------------------------------------

 C13H18N4-UB3LYP-aug-cc-pVDZ-Doublet
 -----------------------------------
 Redundant internal coordinates taken from checkpoint file:
 C13H18N4-UB3LYP-aug-cc-pVDZ-Doublet.chk
 Charge =  0 Multiplicity = 3

                         Standard orientation:
 ---------------------------------------------------------------------
 Center     Atomic      Atomic             Coordinates (Angstroms)
 Number     Number       Type             X           Y           Z
 ---------------------------------------------------------------------
      1          6           0        4.139357    0.771243   -0.745499
      2          6           0        4.099568   -0.632644   -0.650264
      3          7           0        2.479929    0.201122    0.525202
      4          6           0        3.105247    1.300810    0.002638
      5          7           0        3.061231   -0.965337    0.132218
      6          6           0        2.686528    2.712019    0.261895
      7          1           0        2.736232    2.962856    1.332033
      8          1           0        3.358112    3.391236   -0.274317
      9          1           0        1.660553    2.908181   -0.082303
     10          6           0        4.988192   -1.674796   -1.251037
     11          1           0        4.984878   -1.612080   -2.348314
     12          1           0        6.027565   -1.550021   -0.916104
     13          1           0        4.642534   -2.672107   -0.955485
     14          6           0        1.259235    0.140757    1.312894
     15          1           0        1.205746    1.047395    1.930204
     16          1           0        1.366327   -0.719159    1.986631
     17          6           0        0.000046   -0.001095    0.449170
     18          1           0       -0.112808    0.877081   -0.200501
     19          1           0        0.113033   -0.879811   -0.199771
     20          6           0       -1.259230   -0.142222    1.312862
     21          1           0       -1.365765    0.717703    1.986663
     22          1           0       -1.206363   -1.048902    1.930122
     23          7           0       -2.479982   -0.201655    0.525175
     24          6           0       -3.105885   -1.300733    0.002019
     25          6           0       -4.139514   -0.770230   -0.746059
     26          6           0       -4.098905    0.633588   -0.650241
     27          7           0       -3.060479    0.965311    0.132527
     28          6           0       -2.688188   -2.712357    0.260663
     29          1           0       -1.662487   -2.909262   -0.083908
     30          1           0       -2.737788   -2.963559    1.330715
     31          1           0       -3.360469   -3.390841   -0.275594
     32          6           0       -4.986984    1.676523   -1.250432
     33          1           0       -4.985659    1.612823   -2.347635
     34          1           0       -6.025995    1.553635   -0.913595
     35          1           0       -4.639339    2.673575   -0.956349
 ---------------------------------------------------------------------

 SCF Done:  E(UB3LYP) =  -725.109427458     A.U. after    4 cycles

 The electronic state is 3-A.
 Alpha  occ. eigenvalues --  -14.40661 -14.40660 -14.35009 -14.35008 -10.24136
 Alpha  occ. eigenvalues --  -10.24133 -10.23182 -10.23182 -10.21600 -10.21600
 Alpha  occ. eigenvalues --  -10.20460 -10.20459 -10.20270 -10.20150 -10.20150
 Alpha  occ. eigenvalues --  -10.18411 -10.18410  -1.05237  -1.05176  -0.87014
 Alpha  occ. eigenvalues --   -0.85602  -0.81579  -0.80801  -0.77657  -0.74009
 Alpha  occ. eigenvalues --   -0.71615  -0.71574  -0.71070  -0.66688  -0.62711
 Alpha  occ. eigenvalues --   -0.58517  -0.58262  -0.55569  -0.54303  -0.51206
 Alpha  occ. eigenvalues --   -0.49851  -0.48775  -0.47485  -0.46023  -0.44188
 Alpha  occ. eigenvalues --   -0.43492  -0.42684  -0.42514  -0.42408  -0.42089
 Alpha  occ. eigenvalues --   -0.41296  -0.41270  -0.40445  -0.39720  -0.39573
 Alpha  occ. eigenvalues --   -0.37835  -0.37646  -0.37479  -0.37152  -0.36053
 Alpha  occ. eigenvalues --   -0.31830  -0.31606  -0.26284  -0.26270  -0.25376
 Alpha  occ. eigenvalues --   -0.24717  -0.24675  -0.24160
 Alpha virt. eigenvalues --   -0.01648  -0.00840  -0.00280  -0.00007   0.00114
 Alpha virt. eigenvalues --    0.00599   0.00776   0.01632   0.01691   0.02137
 Alpha virt. eigenvalues --    0.02769   0.02954   0.03253   0.03590   0.03954

  Beta  occ. eigenvalues --  -14.40582 -14.40581 -14.34835 -14.34834 -10.24121
  Beta  occ. eigenvalues --  -10.24119 -10.23161 -10.23160 -10.21562 -10.21562
  Beta  occ. eigenvalues --  -10.20449 -10.20449 -10.20273 -10.18623 -10.18622
  Beta  occ. eigenvalues --  -10.18408 -10.18407  -1.04819  -1.04752  -0.86738
  Beta  occ. eigenvalues --   -0.85303  -0.81172  -0.80053  -0.77195  -0.73930
  Beta  occ. eigenvalues --   -0.71070  -0.70949  -0.70678  -0.65955  -0.62351
  Beta  occ. eigenvalues --   -0.57672  -0.57327  -0.55139  -0.53779  -0.50715
  Beta  occ. eigenvalues --   -0.49716  -0.48703  -0.46945  -0.45940  -0.43944
  Beta  occ. eigenvalues --   -0.43357  -0.42670  -0.42429  -0.42312  -0.42072
  Beta  occ. eigenvalues --   -0.41208  -0.41029  -0.40424  -0.39536  -0.39185
  Beta  occ. eigenvalues --   -0.37557  -0.37370  -0.37199  -0.36928  -0.35943
  Beta  occ. eigenvalues --   -0.29730  -0.29620  -0.24980  -0.24395  -0.23930
  Beta  occ. eigenvalues --   -0.23326
  Beta virt. eigenvalues --   -0.10926  -0.10866  -0.01581  -0.00755  -0.00208
  Beta virt. eigenvalues --    0.00082   0.00160   0.00615   0.00780   0.01721
  Beta virt. eigenvalues --    0.01734   0.02228   0.02896   0.03067   0.03304

 Mulliken atomic charges:
              1
     1  C   -0.852882
     2  C   -0.217457
     3  N    0.373887
     4  C    0.225463
     5  N   -0.683297
     6  C    1.043932
     7  H   -0.157222
     8  H   -0.336974
     9  H   -0.129803
    10  C    1.253302
    11  H   -0.144495
    12  H   -0.140754
    13  H   -0.381721
    14  C    1.409960
    15  H   -0.645354
    16  H   -0.619178
    17  C    0.898174
    18  H   -0.446823
    19  H   -0.446614
    20  C    1.410687
    21  H   -0.619421
    22  H   -0.645193
    23  N    0.373576
    24  C    0.225213
    25  C   -0.852676
    26  C   -0.217807
    27  N   -0.683652
    28  C    1.044496
    29  H   -0.129763
    30  H   -0.157332
    31  H   -0.336962
    32  C    1.253591
    33  H   -0.144785
    34  H   -0.140440
    35  H   -0.381677
 Sum of Mulliken atomic charges =   0.00000

 Dipole moment (field-independent basis, Debye):
    X=             -0.0014    Y=             -0.0010    Z=              1.4899  Tot=              1.4899
 Quadrupole moment (field-independent basis, Debye-Ang):
   XX=           -113.6218   YY=            -98.7120   ZZ=           -101.5055
   XY=              4.4220   XZ=             -0.0011   YZ=             -0.0014

  Exact polarizability: 220.801 -12.097 197.261  -0.005   0.001 151.664
 Approx polarizability: 281.323  -5.653 304.961   0.000   0.000 242.147

                     1                      2                      3
                     A                      A                      A
 Frequencies --    18.6020                22.1004                36.4149
 Red. masses --     3.6919                 3.8088                 4.6359
 Frc consts  --     0.0008                 0.0011                 0.0036
 IR Inten    --     0.8131                 1.1751                 0.0310

                     4                      5                      6
                     A                      A                      A
 Frequencies --    57.3633                82.3393                88.3815
 Red. masses --     3.6083                 1.5488                 1.0373
 Frc consts  --     0.0070                 0.0062                 0.0048
 IR Inten    --     0.0422                 0.1237                 0.1077

                     7                      8                      9
                     A                      A                      A
 Frequencies --    94.0908               100.0056               114.6417
 Red. masses --     1.5504                 1.9735                 1.0584
 Frc consts  --     0.0081                 0.0116                 0.0082
 IR Inten    --     0.0062                 0.1202                 0.1768

                    10                     11                     12
                     A                      A                      A
 Frequencies --   118.3540               178.4751               180.1345
 Red. masses --     1.2172                 3.0294                 3.1329
 Frc consts  --     0.0100                 0.0569                 0.0599
 IR Inten    --     0.2059                 7.8980                 4.5967

                    13                     14                     15
                     A                      A                      A
 Frequencies --   199.1595               222.6502               256.4655
 Red. masses --     3.6707                 5.6433                 2.5511
 Frc consts  --     0.0858                 0.1648                 0.0989
 IR Inten    --     0.2569                 4.7995                 1.7721

                    16                     17                     18
                     A                      A                      A
 Frequencies --   270.1061               278.9069               292.8188
 Red. masses --     2.5121                 2.2771                 2.9539
 Frc consts  --     0.1080                 0.1044                 0.1492
 IR Inten    --     5.8344                 0.9010                 0.6543

                    19                     20                     21
                     A                      A                      A
 Frequencies --   312.8041               351.8571               445.5109
 Red. masses --     3.8002                 4.4228                 3.9114
 Frc consts  --     0.2191                 0.3226                 0.4574
 IR Inten    --     3.1117                 0.0869                 9.9662

                    22                     23                     24
                     A                      A                      A
 Frequencies --   481.7340               485.9809               589.0712
 Red. masses --     2.7393                 2.9922                 4.3828
 Frc consts  --     0.3746                 0.4164                 0.8961
 IR Inten    --     0.8300                 2.0843                 1.3398

                    25                     26                     27
                     A                      A                      A
 Frequencies --   589.4013               590.6418               591.6841
 Red. masses --     5.3948                 4.1785                 5.0580
 Frc consts  --     1.1042                 0.8588                 1.0433
 IR Inten    --     7.6259                 0.0153                 6.6306

                    28                     29                     30
                     A                      A                      A
 Frequencies --   642.1495               645.4180               665.5382
 Red. masses --     5.6727                 7.1037                 5.8041
 Frc consts  --     1.3782                 1.7435                 1.5147
 IR Inten    --    11.4014                 1.3268                18.1889

                    31                     32                     33
                     A                      A                      A
 Frequencies --   705.4785               738.0931               812.7596
 Red. masses --     4.7508                 1.1360                 4.3099
 Frc consts  --     1.3931                 0.3646                 1.6774
 IR Inten    --     2.2424                 1.4326                13.4310

                    34                     35                     36
                     A                      A                      A
 Frequencies --   834.8702               862.7079               983.1069
 Red. masses --     1.8494                 2.2342                 1.5836
 Frc consts  --     0.7595                 0.9797                 0.9018
 IR Inten    --     0.7461                 0.1684                15.0976

                    37                     38                     39
                     A                      A                      A
 Frequencies --   985.2805              1016.6533              1017.3774
 Red. masses --     1.6021                 1.8219                 2.1728
 Frc consts  --     0.9163                 1.1095                 1.3251
 IR Inten    --     0.2601                12.2257                 4.3587

                    40                     41                     42
                     A                      A                      A
 Frequencies --  1021.2642              1028.4391              1035.4870
 Red. masses --     4.8418                 3.6817                 2.8193
 Frc consts  --     2.9753                 2.2943                 1.7811
 IR Inten    --    24.2416                 0.9620                 8.7573

                    43                     44                     45
                     A                      A                      A
 Frequencies --  1045.1382              1045.1903              1047.2750
 Red. masses --     1.4532                 1.4521                 1.4820
 Frc consts  --     0.9352                 0.9347                 0.9577
 IR Inten    --     1.4613                 0.8191                 0.5409

                    46                     47                     48
                     A                      A                      A
 Frequencies --  1047.5672              1062.7798              1074.9943
 Red. masses --     1.4652                 4.7512                 2.5421
 Frc consts  --     0.9473                 3.1619                 1.7308
 IR Inten    --     0.2291                 7.3978                 2.3097

                    49                     50                     51
                     A                      A                      A
 Frequencies --  1113.1021              1176.5438              1204.5543
 Red. masses --     2.3430                 3.2606                 2.5127
 Frc consts  --     1.7104                 2.6592                 2.1480
 IR Inten    --     0.5124                 7.3961                 0.1032

                    52                     53                     54
                     A                      A                      A
 Frequencies --  1255.4596              1269.0676              1290.6488
 Red. masses --     2.7712                 1.2603                 1.5666
 Frc consts  --     2.5735                 1.1959                 1.5376
 IR Inten    --     6.7274                 0.7093                 1.6536

                    55                     56                     57
                     A                      A                      A
 Frequencies --  1334.7125              1340.8054              1368.5392
 Red. masses --     1.7815                 2.0288                 3.1701
 Frc consts  --     1.8699                 2.1489                 3.4982
 IR Inten    --     6.4890                52.9721                 1.3518

                    58                     59                     60
                     A                      A                      A
 Frequencies --  1370.7046              1383.1116              1391.7150
 Red. masses --     3.1222                 1.3597                 1.3339
 Frc consts  --     3.4562                 1.5325                 1.5223
 IR Inten    --    33.9238                 1.0629                 3.4256

                    61                     62                     63
                     A                      A                      A
 Frequencies --  1392.1975              1397.1181              1398.8991
 Red. masses --     1.3631                 1.4799                 1.2758
 Frc consts  --     1.5566                 1.7020                 1.4710
 IR Inten    --     0.5179                23.5158                22.0151

                    64                     65                     66
                     A                      A                      A
 Frequencies --  1399.7517              1426.8264              1428.0975
 Red. masses --     1.2508                 2.2153                 2.3135
 Frc consts  --     1.4439                 2.6572                 2.7799
 IR Inten    --     2.0362                97.0501                21.4629

                    67                     68                     69
                     A                      A                      A
 Frequencies --  1458.5217              1458.5293              1460.5946
 Red. masses --     1.0422                 1.0422                 1.0736
 Frc consts  --     1.3062                 1.3062                 1.3495
 IR Inten    --     6.1924                 6.5921                 6.8626

                    70                     71                     72
                     A                      A                      A
 Frequencies --  1461.7300              1462.9940              1463.9326
 Red. masses --     1.0641                 1.0648                 1.0875
 Frc consts  --     1.3395                 1.3428                 1.3732
 IR Inten    --     1.3398                 2.7447                 5.2394

                    73                     74                     75
                     A                      A                      A
 Frequencies --  1473.7028              1474.1291              1482.9931
 Red. masses --     1.2096                 1.2216                 1.3688
 Frc consts  --     1.5477                 1.5641                 1.7736
 IR Inten    --    12.0608                 6.7437                 1.8663

                    76                     77                     78
                     A                      A                      A
 Frequencies --  1484.1872              1488.3189              1501.3471
 Red. masses --     1.5605                 1.2171                 4.4043
 Frc consts  --     2.0254                 1.5884                 5.8491
 IR Inten    --     1.2093                 8.4250                36.1879

                    79                     80                     81
                     A                      A                      A
 Frequencies --  1501.7531              1569.5615              1569.7062
 Red. masses --     4.4368                 7.2828                 7.2473
 Frc consts  --     5.8954                10.5707                10.5211
 IR Inten    --     7.5352                10.6598                42.8093

                    82                     83                     84
                     A                      A                      A
 Frequencies --  3026.3570              3026.4207              3036.3180
 Red. masses --     1.0396                 1.0396                 1.0370
 Frc consts  --     5.6097                 5.6100                 5.6325
 IR Inten    --    12.6769                39.7892                54.3431

                    85                     86                     87
                     A                      A                      A
 Frequencies --  3036.3885              3051.4933              3054.5673
 Red. masses --     1.0369                 1.0588                 1.0584
 Frc consts  --     5.6328                 5.8086                 5.8182
 IR Inten    --    13.8632                 6.5285                 7.0141

                    88                     89                     90
                     A                      A                      A
 Frequencies --  3064.4590              3079.9240              3079.9736
 Red. masses --     1.0588                 1.1007                 1.1007
 Frc consts  --     5.8586                 6.1515                 6.1517
 IR Inten    --    48.5954                12.7010                15.4379

                    91                     92                     93
                     A                      A                      A
 Frequencies --  3090.2435              3093.3420              3093.3740
 Red. masses --     1.1036                 1.1008                 1.1008
 Frc consts  --     6.2092                 6.2060                 6.2062
 IR Inten    --     0.4992                12.5764                15.5156

                    94                     95                     96
                     A                      A                      A
 Frequencies --  3103.9347              3120.3721              3130.0508
 Red. masses --     1.1061                 1.1073                 1.1011
 Frc consts  --     6.2789                 6.3524                 6.3560
 IR Inten    --     0.1255                25.1057                 6.7424

                    97                     98                     99
                     A                      A                      A
 Frequencies --  3130.0724              3133.4730              3133.5113
 Red. masses --     1.1011                 1.0981                 1.0981
 Frc consts  --     6.3560                 6.3524                 6.3527
 IR Inten    --    11.2390                 8.2265                11.1646

 - Thermochemistry -
 -------------------
 Temperature   298.150 Kelvin.  Pressure   1.00000 Atm.
 Atom     1 has atomic number  6 and mass  12.00000

 Molecular mass:   230.15315 amu.
 Principal axes and moments of inertia in atomic units:
                           1         2         3
     Eigenvalues --  2042.356569479.53052**********
           X            0.99999  -0.00502   0.00000
           Y            0.00502   0.99999   0.00001
           Z            0.00000  -0.00001   1.00000
 This molecule is an asymmetric top.
 Rotational symmetry number  1.
 Warning -- assumption of classical behavior for rotation
           may cause significant error
 Rotational temperatures (Kelvin)      0.04241     0.00914     0.00828
 Rotational constants (GHZ):           0.88366     0.19038     0.17253
 Zero-point vibrational energy     766240.4 (Joules/Mol)
                                  183.13585 (Kcal/Mol)
 Warning -- explicit consideration of  27 degrees of freedom as
           vibrations may cause significant error
 Vibrational temperatures:     26.76    31.80    52.39    82.53   118.47
          (Kelvin)            127.16   135.38   143.89   164.94   170.28
                              256.79   259.17   286.55   320.34   369.00
                              388.62   401.28   421.30   450.05   506.24
                              640.99   693.11   699.22   847.54   848.02
                              849.80   851.30   923.91   928.61   957.56
                             1015.02  1061.95  1169.38  1201.19  1241.24
                             1414.47  1417.60  1462.74  1463.78  1469.37
                             1479.69  1489.83  1503.72  1503.79  1506.79
                             1507.21  1529.10  1546.68  1601.50  1692.78
                             1733.08  1806.32  1825.90  1856.95  1920.35
                             1929.12  1969.02  1972.14  1989.99  2002.36
                             2003.06  2010.14  2012.70  2013.93  2052.88
                             2054.71  2098.48  2098.50  2101.47  2103.10
                             2104.92  2106.27  2120.33  2120.94  2133.69
                             2135.41  2141.36  2160.10  2160.69  2258.25
                             2258.45  4354.25  4354.34  4368.58  4368.68
                             4390.41  4394.84  4409.07  4431.32  4431.39
                             4446.17  4450.62  4450.67  4465.86  4489.51
                             4503.44  4503.47  4508.36  4508.42

 Zero-point correction=                           0.291846 (Hartree/Particle)
 Thermal correction to Energy=                    0.310339
 Thermal correction to Enthalpy=                  0.311283
 Thermal correction to Gibbs Free Energy=         0.241110
 Sum of electronic and zero-point Energies=           -724.817582
 Sum of electronic and thermal Energies=              -724.799089
 Sum of electronic and thermal Enthalpies=            -724.798144
 Sum of electronic and thermal Free Energies=         -724.868317

                     E (Thermal)             CV                S
                      KCal/Mol        Cal/Mol-Kelvin    Cal/Mol-Kelvin
 Total                  194.741             65.534            147.691
 Electronic               0.000              0.000              2.183
 Translational            0.889              2.981             42.203
 Rotational               0.889              2.981             33.670
 Vibrational            192.963             59.572             69.634
 Vibration     1          0.593              1.986              6.778
 Vibration     2          0.593              1.985              6.436
 Vibration     3          0.594              1.982              5.445
 Vibration     4          0.596              1.975              4.546
 Vibration     5          0.600              1.961              3.834
 Vibration     6          0.601              1.957              3.696
 Vibration     7          0.603              1.953              3.573
 Vibration     8          0.604              1.949              3.454
 Vibration     9          0.608              1.937              3.189
 Vibration    10          0.609              1.934              3.127
 Vibration    11          0.629              1.869              2.344
 Vibration    12          0.629              1.867              2.327
 Vibration    13          0.637              1.841              2.141
 Vibration    14          0.648              1.807              1.937
 Vibration    15          0.666              1.752              1.686
 Vibration    16          0.674              1.728              1.596
 Vibration    17          0.679              1.713              1.540
 Vibration    18          0.688              1.687              1.458
 Vibration    19          0.701              1.649              1.347
 Vibration    20          0.728              1.571              1.158
 Vibration    21          0.805              1.371              0.809
 Vibration    22          0.838              1.291              0.705
 Vibration    23          0.842              1.281              0.694
 Vibration    24          0.946              1.055              0.469
 Vibration    25          0.947              1.054              0.468
 Vibration    26          0.948              1.052              0.466
 Vibration    27          0.949              1.050              0.464

 Normal termination of Gaussian 09 at Fri Feb 25 01:28:25 2005.
