 Gaussian 09, Revision B.01,
 Gaussian 09:  EM64L-G09RevB.01 12-Aug-2010

 -------------------------------------------------
 #p Temperature=298.15 opt freq UB3LYP/aug-cc-pVDZ
 -------------------------------------------------

 -------------------------------------
 C13H18N6++-UB3LYP-aug-cc-pVDZ-Singlet
 -------------------------------------
 Symbolic Z-matrix:
 Charge =  2 Multiplicity = 1

 SCF Done:  E(UB3LYP) =  -833.919468904     A.U. after   30 cycles
 SCF Done:  E(UB3LYP) =  -833.990283013     A.U. after   30 cycles
 SCF Done:  E(UB3LYP) =  -834.023178842     A.U. after   21 cycles
 SCF Done:  E(UB3LYP) =  -834.039774323     A.U. after   17 cycles
 SCF Done:  E(UB3LYP) =  -834.042614940     A.U. after   20 cycles
 SCF Done:  E(UB3LYP) =  -834.044991375     A.U. after   20 cycles
 SCF Done:  E(UB3LYP) =  -834.046299222     A.U. after   18 cycles
 SCF Done:  E(UB3LYP) =  -834.046428493     A.U. after   20 cycles
 SCF Done:  E(UB3LYP) =  -834.047335125     A.U. after   20 cycles
 SCF Done:  E(UB3LYP) =  -834.047558417     A.U. after   21 cycles
 SCF Done:  E(UB3LYP) =  -834.048459791     A.U. after   14 cycles
 SCF Done:  E(UB3LYP) =  -834.048466240     A.U. after   21 cycles
 SCF Done:  E(UB3LYP) =  -834.048467596     A.U. after   12 cycles
 SCF Done:  E(UB3LYP) =  -834.048467476     A.U. after   12 cycles
 SCF Done:  E(UB3LYP) =  -834.048467404     A.U. after   12 cycles
 SCF Done:  E(UB3LYP) =  -834.048467392     A.U. after   11 cycles
 SCF Done:  E(UB3LYP) =  -834.048467442     A.U. after    9 cycles
 SCF Done:  E(UB3LYP) =  -834.048467511     A.U. after    9 cycles
 SCF Done:  E(UB3LYP) =  -834.048467541     A.U. after    8 cycles
 Optimization completed.
    -- Stationary point found.
 Normal termination of Gaussian 09 at Wed Mar  7 23:37:30 2018.

 ----------------------------------------------------------------------
 #P Geom=AllCheck Guess=TCheck SCRF=Check GenChk UB3LYP/Aug-CC-pVDZ Fre
 q
 ----------------------------------------------------------------------

 C13H18N6++-UB3LYP-aug-cc-pVDZ-Singlet
 -------------------------------------
 Redundant internal coordinates taken from checkpoint file:
 C13H18N6++-UB3LYP-aug-cc-pVDZ-Singlet.chk
 Charge =  2 Multiplicity = 1

                         Standard orientation:
 ---------------------------------------------------------------------
 Center     Atomic      Atomic             Coordinates (Angstroms)
 Number     Number       Type             X           Y           Z
 ---------------------------------------------------------------------
      1          6           0       -4.701298    0.547892    0.698792
      2          6           0       -4.780265   -0.798197    0.915443
      3          7           0       -3.138988    0.030277   -0.486340
      4          6           0       -3.887422    1.124510   -0.267651
      5          7           0       -3.618243   -1.039768    0.257890
      6          6           0       -3.798742    2.488535   -0.848454
      7          1           0       -4.718086    3.042845   -0.628630
      8          1           0       -2.953630    3.045985   -0.420593
      9          1           0       -3.673964    2.436735   -1.937675
     10          6           0       -5.558984   -1.773990    1.711799
     11          1           0       -5.663056   -1.418601    2.744785
     12          1           0       -6.563830   -1.883566    1.281782
     13          1           0       -5.053542   -2.744579    1.700907
     14          6           0       -1.915741   -0.184851   -1.266353
     15          1           0       -1.943863    0.527901   -2.099592
     16          1           0       -2.018331   -1.198828   -1.677574
     17          6           0       -0.634145   -0.034782   -0.432282
     18          1           0       -0.565300    0.981652   -0.026642
     19          1           0       -0.662054   -0.736262    0.411641
     20          6           0        0.600803   -0.311148   -1.304111
     21          1           0        0.616930    0.350372   -2.181402
     22          1           0        0.616824   -1.346975   -1.658712
     23          7           0        1.853421   -0.081900   -0.571386
     24          6           0        2.909729   -0.897714   -0.464582
     25          6           0        3.849882   -0.115946    0.254251
     26          6           0        3.248611    1.171115    0.524724
     27          7           0        2.039821    1.155892    0.007972
     28          6           0        3.023597   -2.279645   -1.012570
     29          1           0        2.213880   -2.922030   -0.641093
     30          1           0        2.982113   -2.269821   -2.111038
     31          1           0        3.974546   -2.735546   -0.717271
     32          6           0        3.828197    2.341089    1.241578
     33          1           0        4.082365    2.081171    2.279035
     34          1           0        4.745363    2.689384    0.745843
     35          1           0        3.102254    3.159712    1.250915
     36          7           0        5.083821   -0.511480    0.609177
     37          7           0        6.119603   -0.798843    0.922944
 ---------------------------------------------------------------------

 SCF Done:  E(UB3LYP) =  -834.048467540     A.U. after    2 cycles

 The electronic state is 1-A.
 Alpha  occ. eigenvalues --  -14.77758 -14.73439 -14.70231 -14.68319 -14.66598
 Alpha  occ. eigenvalues --  -14.61172 -10.54330 -10.53245 -10.53227 -10.52570
 Alpha  occ. eigenvalues --  -10.52126 -10.49615 -10.49369 -10.48760 -10.44628
 Alpha  occ. eigenvalues --  -10.44517 -10.44263 -10.42532 -10.41344  -1.42669
 Alpha  occ. eigenvalues --   -1.35139  -1.32236  -1.15782  -1.15303  -1.12522
 Alpha  occ. eigenvalues --   -1.08984  -1.05753  -1.02022  -0.99243  -0.97242
 Alpha  occ. eigenvalues --   -0.96658  -0.96000  -0.92064  -0.87694  -0.86097
 Alpha  occ. eigenvalues --   -0.83589  -0.83193  -0.82509  -0.78499  -0.77564
 Alpha  occ. eigenvalues --   -0.75746  -0.74896  -0.74630  -0.74016  -0.73187
 Alpha  occ. eigenvalues --   -0.71581  -0.70020  -0.68898  -0.68300  -0.67109
 Alpha  occ. eigenvalues --   -0.66774  -0.66547  -0.66331  -0.65635  -0.64777
 Alpha  occ. eigenvalues --   -0.64337  -0.64050  -0.62843  -0.62585  -0.62085
 Alpha  occ. eigenvalues --   -0.61344  -0.60239  -0.58397  -0.55420  -0.53855
 Alpha  occ. eigenvalues --   -0.53080  -0.52774  -0.51655
 Alpha virt. eigenvalues --   -0.40944  -0.33727  -0.33561  -0.27910  -0.25262
 Alpha virt. eigenvalues --   -0.22816  -0.21840  -0.20758  -0.19433  -0.19072
 Alpha virt. eigenvalues --   -0.18236  -0.18133  -0.17678  -0.17341  -0.16512

  Beta  occ. eigenvalues --  -14.77758 -14.73439 -14.70231 -14.68319 -14.66598
  Beta  occ. eigenvalues --  -14.61172 -10.54330 -10.53245 -10.53227 -10.52570
  Beta  occ. eigenvalues --  -10.52126 -10.49615 -10.49369 -10.48760 -10.44628
  Beta  occ. eigenvalues --  -10.44517 -10.44263 -10.42532 -10.41344  -1.42669
  Beta  occ. eigenvalues --   -1.35139  -1.32236  -1.15782  -1.15303  -1.12522
  Beta  occ. eigenvalues --   -1.08984  -1.05753  -1.02022  -0.99243  -0.97242
  Beta  occ. eigenvalues --   -0.96658  -0.96000  -0.92064  -0.87694  -0.86097
  Beta  occ. eigenvalues --   -0.83589  -0.83193  -0.82509  -0.78499  -0.77564
  Beta  occ. eigenvalues --   -0.75746  -0.74896  -0.74630  -0.74016  -0.73187
  Beta  occ. eigenvalues --   -0.71581  -0.70020  -0.68898  -0.68300  -0.67109
  Beta  occ. eigenvalues --   -0.66774  -0.66547  -0.66331  -0.65635  -0.64777
  Beta  occ. eigenvalues --   -0.64337  -0.64050  -0.62843  -0.62585  -0.62085
  Beta  occ. eigenvalues --   -0.61344  -0.60239  -0.58397  -0.55420  -0.53855
  Beta  occ. eigenvalues --   -0.53080  -0.52774  -0.51655
  Beta virt. eigenvalues --   -0.40944  -0.33727  -0.33561  -0.27910  -0.25262
  Beta virt. eigenvalues --   -0.22816  -0.21840  -0.20758  -0.19433  -0.19072
  Beta virt. eigenvalues --   -0.18236  -0.18133  -0.17678  -0.17341  -0.16512

 Mulliken atomic charges:
              1
     1  C   -0.333181
     2  C   -0.166671
     3  N    0.300794
     4  C    0.104161
     5  N   -0.464738
     6  C    1.063647
     7  H   -0.248385
     8  H    0.003764
     9  H   -0.194722
    10  C    1.104582
    11  H   -0.062793
    12  H   -0.033306
    13  H   -0.283607
    14  C    1.423713
    15  H   -0.630345
    16  H   -0.537013
    17  C    1.145925
    18  H   -0.491308
    19  H   -0.491365
    20  C    1.278005
    21  H   -0.507103
    22  H   -0.710736
    23  N    0.108782
    24  C   -0.489683
    25  C    0.868311
    26  C   -0.461112
    27  N   -0.201996
    28  C    1.021781
    29  H   -0.033460
    30  H    0.011387
    31  H   -0.408620
    32  C    1.047905
    33  H   -0.060265
    34  H   -0.066065
    35  H   -0.373782
    36  N    0.367127
    37  N   -0.599628
 Sum of Mulliken atomic charges =   2.00000

 Dipole moment (field-independent basis, Debye):
    X=             -2.1330    Y=             -0.8503    Z=             -0.4009  Tot=              2.3310
 Quadrupole moment (field-independent basis, Debye-Ang):
   XX=             65.3990   YY=            -77.5660   ZZ=            -90.6928
   XY=             -7.7690   XZ=             -2.5311   YZ=             -0.0245

  Exact polarizability: 254.209  -7.326 188.478   3.247   0.263 149.295
 Approx polarizability: 381.394 -50.741 318.039  10.300   4.289 240.563

                     1                      2                      3
                     A                      A                      A
 Frequencies --    14.3078                21.5730                37.3065
 Red. masses --     3.8075                 4.5633                 5.1699
 Frc consts  --     0.0005                 0.0013                 0.0042
 IR Inten    --     0.9969                 0.8503                 1.3744

                     4                      5                      6
                     A                      A                      A
 Frequencies --    55.7410                77.1021                80.8659
 Red. masses --     3.9101                 1.2152                 1.0865
 Frc consts  --     0.0072                 0.0043                 0.0042
 IR Inten    --     0.2861                 0.2779                 0.4496

                     7                      8                      9
                     A                      A                      A
 Frequencies --    88.6163                91.9808                99.0852
 Red. masses --     2.2188                 1.2478                 1.6341
 Frc consts  --     0.0103                 0.0062                 0.0095
 IR Inten    --     0.5173                 0.5000                 0.1972

                    10                     11                     12
                     A                      A                      A
 Frequencies --   110.4116               132.1098               135.2291
 Red. masses --     1.1930                 3.7184                 3.4799
 Frc consts  --     0.0086                 0.0382                 0.0375
 IR Inten    --     0.9438                 0.9777                 1.4740

                    13                     14                     15
                     A                      A                      A
 Frequencies --   147.4515               182.4291               195.5737
 Red. masses --     4.2660                 3.8427                 3.8896
 Frc consts  --     0.0546                 0.0753                 0.0877
 IR Inten    --     8.0544                 0.9243                 1.6523

                    16                     17                     18
                     A                      A                      A
 Frequencies --   242.5360               247.0132               248.9289
 Red. masses --     4.3567                 2.4994                 3.0219
 Frc consts  --     0.1510                 0.0899                 0.1103
 IR Inten    --     3.8023                 0.9402                 1.7070

                    19                     20                     21
                     A                      A                      A
 Frequencies --   265.0622               283.5851               317.7725
 Red. masses --     3.0088                 3.1064                 3.7325
 Frc consts  --     0.1245                 0.1472                 0.2221
 IR Inten    --     0.7471                 0.8428                 2.2174

                    22                     23                     24
                     A                      A                      A
 Frequencies --   351.9370               360.4092               405.8439
 Red. masses --     4.1810                 4.1964                 4.7809
 Frc consts  --     0.3051                 0.3212                 0.4640
 IR Inten    --    10.5972                15.7561                 5.0324

                    25                     26                     27
                     A                      A                      A
 Frequencies --   443.6460               462.3484               525.2843
 Red. masses --     3.9474                 3.4354                10.6267
 Frc consts  --     0.4578                 0.4327                 1.7276
 IR Inten    --     4.9967                 0.5992                 1.4472

                    28                     29                     30
                     A                      A                      A
 Frequencies --   532.5143               565.6525               587.2334
 Red. masses --     6.1682                 5.3359                 4.9211
 Frc consts  --     1.0306                 1.0059                 0.9999
 IR Inten    --     2.7935                29.8042                17.3682

                    31                     32                     33
                     A                      A                      A
 Frequencies --   597.9873               621.8200               658.3474
 Red. masses --     4.0814                 5.0211                 4.9833
 Frc consts  --     0.8599                 1.1439                 1.2726
 IR Inten    --     3.6542                 2.5258                 1.4048

                    34                     35                     36
                     A                      A                      A
 Frequencies --   664.7704               669.5364               704.0367
 Red. masses --     6.1434                 5.6579                 4.9713
 Frc consts  --     1.5996                 1.4944                 1.4518
 IR Inten    --     8.0477                10.8076                10.3740

                    37                     38                     39
                     A                      A                      A
 Frequencies --   745.4873               797.3615               841.4851
 Red. masses --     1.1364                 5.5262                 1.4457
 Frc consts  --     0.3721                 2.0701                 0.6031
 IR Inten    --     1.6098                11.9305                 3.8535

                    40                     41                     42
                     A                      A                      A
 Frequencies --   872.1290               883.2327               941.6593
 Red. masses --     3.5346                 2.8276                 2.5588
 Frc consts  --     1.5840                 1.2996                 1.3368
 IR Inten    --     5.9154                 0.1662                19.8776

                    43                     44                     45
                     A                      A                      A
 Frequencies --   998.7631              1025.6643              1030.0626
 Red. masses --     2.2291                 2.0536                 2.1621
 Frc consts  --     1.3101                 1.2729                 1.3516
 IR Inten    --    13.2976                 1.9376                 3.2279

                    46                     47                     48
                     A                      A                      A
 Frequencies --  1032.4339              1034.1702              1037.7860
 Red. masses --     1.4786                 1.6876                 1.8690
 Frc consts  --     0.9286                 1.0634                 1.1860
 IR Inten    --     4.1500                 2.3722                 3.7009

                    49                     50                     51
                     A                      A                      A
 Frequencies --  1041.8573              1044.5793              1046.1271
 Red. masses --     1.9345                 1.8924                 1.6140
 Frc consts  --     1.2372                 1.2166                 1.0407
 IR Inten    --     0.7259                14.7578                 3.1262

                    52                     53                     54
                     A                      A                      A
 Frequencies --  1062.7799              1082.0848              1145.0942
 Red. masses --     2.6742                 2.5297                 3.0982
 Frc consts  --     1.7796                 1.7452                 2.3935
 IR Inten    --     5.1613                10.1209                 3.9257

                    55                     56                     57
                     A                      A                      A
 Frequencies --  1166.8788              1191.6658              1209.0207
 Red. masses --     3.6759                 3.4657                 4.4591
 Frc consts  --     2.9489                 2.8997                 3.8403
 IR Inten    --     6.9044                 9.7898                17.2981

                    58                     59                     60
                     A                      A                      A
 Frequencies --  1258.4151              1278.3735              1293.9888
 Red. masses --     1.7146                 2.0550                 1.9758
 Frc consts  --     1.5998                 1.9787                 1.9492
 IR Inten    --     0.8993                 1.1158                 3.4330

                    61                     62                     63
                     A                      A                      A
 Frequencies --  1326.7142              1333.2485              1384.0673
 Red. masses --     1.1363                 1.3052                 1.9468
 Frc consts  --     1.1784                 1.3669                 2.1973
 IR Inten    --     1.0141                23.3970               129.4312

                    64                     65                     66
                     A                      A                      A
 Frequencies --  1389.5613              1397.7851              1401.9273
 Red. masses --     1.3344                 1.8490                 1.3393
 Frc consts  --     1.5180                 2.1285                 1.5509
 IR Inten    --    23.5797                42.4550                 8.5074

                    67                     68                     69
                     A                      A                      A
 Frequencies --  1405.0531              1407.2602              1408.4886
 Red. masses --     1.2289                 1.2071                 1.4010
 Frc consts  --     1.4294                 1.4085                 1.6376
 IR Inten    --     7.8203                 5.5838                27.8927

                    70                     71                     72
                     A                      A                      A
 Frequencies --  1414.1366              1433.7956              1441.6619
 Red. masses --     1.7260                 1.6388                 1.0386
 Frc consts  --     2.0336                 1.9849                 1.2718
 IR Inten    --    67.1172               107.8934                14.6173

                    73                     74                     75
                     A                      A                      A
 Frequencies --  1445.2404              1450.1504              1451.3845
 Red. masses --     1.0738                 1.0463                 1.0460
 Frc consts  --     1.3215                 1.2964                 1.2983
 IR Inten    --     3.2379                14.8459                15.5345

                    76                     77                     78
                     A                      A                      A
 Frequencies --  1452.1008              1454.8248              1455.7375
 Red. masses --     1.0425                 1.0916                 1.2518
 Frc consts  --     1.2951                 1.3613                 1.5629
 IR Inten    --    14.2931                 8.3091                17.2254

                    79                     80                     81
                     A                      A                      A
 Frequencies --  1476.9310              1485.2419              1491.5779
 Red. masses --     1.1139                 1.5510                 1.1451
 Frc consts  --     1.4316                 2.0158                 1.5011
 IR Inten    --    15.3878                 4.3231                10.3818

                    82                     83                     84
                     A                      A                      A
 Frequencies --  1505.8988              1549.8003              1561.2681
 Red. masses --     1.9032                 7.3251                 7.7879
 Frc consts  --     2.5428                10.3661                11.1847
 IR Inten    --    34.8061                41.5332                33.6184

                    85                     86                     87
                     A                      A                      A
 Frequencies --  1579.6821              1669.1685              2304.2926
 Red. masses --     7.4058                10.7007                13.9605
 Frc consts  --    10.8883                17.5655                43.6744
 IR Inten    --    84.0920                80.0428               351.4902

                    88                     89                     90
                     A                      A                      A
 Frequencies --  3044.2120              3045.0290              3047.0726
 Red. masses --     1.0385                 1.0386                 1.0373
 Frc consts  --     5.6704                 5.6738                 5.6742
 IR Inten    --     1.8162                 2.8203                 4.5009

                    91                     92                     93
                     A                      A                      A
 Frequencies --  3056.0438              3059.8923              3062.4880
 Red. masses --     1.0360                 1.0614                 1.0638
 Frc consts  --     5.7008                 5.8554                 5.8785
 IR Inten    --     8.7551                 1.6941                 0.8723

                    94                     95                     96
                     A                      A                      A
 Frequencies --  3073.7395              3107.6680              3113.0332
 Red. masses --     1.0615                 1.1010                 1.1013
 Frc consts  --     5.9087                 6.2648                 6.2881
 IR Inten    --     5.2086                 0.0442                 0.2801

                    97                     98                     99
                     A                      A                      A
 Frequencies --  3113.5896              3119.7993              3129.2027
 Red. masses --     1.1030                 1.1007                 1.1039
 Frc consts  --     6.3003                 6.3121                 6.3686
 IR Inten    --     1.1490                 0.1776                 0.7561

                   100                    101                    102
                     A                      A                      A
 Frequencies --  3129.3102              3142.2905              3146.3347
 Red. masses --     1.1015                 1.1042                 1.1009
 Frc consts  --     6.3552                 6.4235                 6.4213
 IR Inten    --     2.3372                 1.8430                 0.5193

                   103                    104                    105
                     A                      A                      A
 Frequencies --  3146.8296              3159.4334              3166.2611
 Red. masses --     1.1030                 1.1010                 1.1038
 Frc consts  --     6.4352                 6.4751                 6.5195
 IR Inten    --     0.1523                 0.2934                 2.4710

 - Thermochemistry -
 -------------------
 Temperature   298.150 Kelvin.  Pressure   1.00000 Atm.
 Atom     1 has atomic number  6 and mass  12.00000

 Molecular mass:   258.15929 amu.
 Principal axes and moments of inertia in atomic units:
                           1         2         3
     Eigenvalues --  2275.79216********************
           X            0.99999   0.00307  -0.00296
           Y           -0.00304   0.99993   0.01116
           Z            0.00299  -0.01115   0.99993
 This molecule is an asymmetric top.
 Rotational symmetry number  1.
 Warning -- assumption of classical behavior for rotation
           may cause significant error
 Rotational temperatures (Kelvin)      0.03806     0.00644     0.00609
 Rotational constants (GHZ):           0.79302     0.13412     0.12682
 Zero-point vibrational energy     790889.4 (Joules/Mol)
                                  189.02709 (Kcal/Mol)
 Warning -- explicit consideration of  31 degrees of freedom as
           vibrations may cause significant error
 Vibrational temperatures:     20.59    31.04    53.68    80.20   110.93
          (Kelvin)            116.35   127.50   132.34   142.56   158.86
                              190.08   194.56   212.15   262.47   281.39
                              348.95   355.40   358.15   381.36   408.02
                              457.20   506.36   518.55   583.92   638.31
                              665.22   755.77   766.17   813.85   844.90
                              860.37   894.66   947.21   956.46   963.31
                             1012.95  1072.59  1147.22  1210.71  1254.80
                             1270.77  1354.84  1437.00  1475.70  1482.03
                             1485.44  1487.94  1493.14  1499.00  1502.91
                             1505.14  1529.10  1556.88  1647.53  1678.88
                             1714.54  1739.51  1810.58  1839.29  1861.76
                             1908.84  1918.24  1991.36  1999.27  2011.10
                             2017.06  2021.56  2024.73  2026.50  2034.62
                             2062.91  2074.23  2079.38  2086.44  2088.22
                             2089.25  2093.17  2094.48  2124.97  2136.93
                             2146.05  2166.65  2229.81  2246.31  2272.81
                             2401.56  3315.36  4379.94  4381.11  4384.05
                             4396.96  4402.50  4406.23  4422.42  4471.24
                             4478.95  4479.76  4488.69  4502.22  4502.37
                             4521.05  4526.87  4527.58  4545.71  4555.54

 Zero-point correction=                           0.301234 (Hartree/Particle)
 Thermal correction to Energy=                    0.322119
 Thermal correction to Enthalpy=                  0.323063
 Thermal correction to Gibbs Free Energy=         0.248406
 Sum of electronic and zero-point Energies=           -833.747234
 Sum of electronic and thermal Energies=              -833.726349
 Sum of electronic and thermal Enthalpies=            -833.725405
 Sum of electronic and thermal Free Energies=         -833.800061

                     E (Thermal)             CV                S
                      KCal/Mol        Cal/Mol-Kelvin    Cal/Mol-Kelvin
 Total                  202.132             73.751            157.128
 Electronic               0.000              0.000              0.000
 Translational            0.889              2.981             42.545
 Rotational               0.889              2.981             34.432
 Vibrational            200.355             67.789             80.151
 Vibration     1          0.593              1.986              7.299
 Vibration     2          0.593              1.985              6.484
 Vibration     3          0.594              1.982              5.397
 Vibration     4          0.596              1.975              4.603
 Vibration     5          0.599              1.964              3.963
 Vibration     6          0.600              1.962              3.870
 Vibration     7          0.601              1.957              3.690
 Vibration     8          0.602              1.955              3.617
 Vibration     9          0.604              1.950              3.472
 Vibration    10          0.606              1.941              3.262
 Vibration    11          0.612              1.921              2.915
 Vibration    12          0.613              1.918              2.870
 Vibration    13          0.617              1.905              2.705
 Vibration    14          0.630              1.864              2.303
 Vibration    15          0.636              1.846              2.174
 Vibration    16          0.659              1.775              1.784
 Vibration    17          0.661              1.768              1.752
 Vibration    18          0.662              1.765              1.738
 Vibration    19          0.671              1.737              1.628
 Vibration    20          0.682              1.704              1.512
 Vibration    21          0.704              1.640              1.322
 Vibration    22          0.728              1.571              1.158
 Vibration    23          0.735              1.554              1.120
 Vibration    24          0.771              1.458              0.941
 Vibration    25          0.803              1.375              0.815
 Vibration    26          0.820              1.334              0.759
 Vibration    27          0.880              1.194              0.598
 Vibration    28          0.887              1.178              0.582
 Vibration    29          0.922              1.106              0.513
 Vibration    30          0.944              1.059              0.472
 Vibration    31          0.956              1.036              0.453

 Optimization completed.
    -- Stationary point found.
 Normal termination of Gaussian 09 at Thu Mar  8 07:06:25 2018.
