 Gaussian 09, Revision B.01,
 Gaussian 09:  EM64L-G09RevB.01 12-Aug-2010

 -------------------------------------------------
 #p Temperature=298.15 opt freq UB3LYP/aug-cc-pVDZ
 -------------------------------------------------

 -------------------------------------
 C13H18N6++-UB3LYP-aug-cc-pVDZ-Triplet
 -------------------------------------
 Symbolic Z-matrix:
 Charge =  2 Multiplicity = 3

 SCF Done:  E(UB3LYP) =  -833.955559630     A.U. after   35 cycles
 SCF Done:  E(UB3LYP) =  -834.018469204     A.U. after   25 cycles
 SCF Done:  E(UB3LYP) =  -834.044125882     A.U. after   27 cycles
 SCF Done:  E(UB3LYP) =  -834.051438621     A.U. after   28 cycles
 SCF Done:  E(UB3LYP) =  -834.053963424     A.U. after   27 cycles
 SCF Done:  E(UB3LYP) =  -834.057194106     A.U. after   26 cycles
 SCF Done:  E(UB3LYP) =  -834.058486998     A.U. after   29 cycles
 SCF Done:  E(UB3LYP) =  -834.059239441     A.U. after   27 cycles
 SCF Done:  E(UB3LYP) =  -834.059718357     A.U. after   26 cycles
 SCF Done:  E(UB3LYP) =  -834.059860078     A.U. after   26 cycles
 SCF Done:  E(UB3LYP) =  -834.059966953     A.U. after   38 cycles
 SCF Done:  E(UB3LYP) =  -834.059975100     A.U. after   15 cycles
 SCF Done:  E(UB3LYP) =  -834.059983054     A.U. after   24 cycles
 SCF Done:  E(UB3LYP) =  -834.059985411     A.U. after   34 cycles
 SCF Done:  E(UB3LYP) =  -834.059986465     A.U. after   49 cycles
 SCF Done:  E(UB3LYP) =  -834.059987453     A.U. after   34 cycles
 SCF Done:  E(UB3LYP) =  -834.059987825     A.U. after   20 cycles
 SCF Done:  E(UB3LYP) =  -834.059987930     A.U. after   16 cycles
 SCF Done:  E(UB3LYP) =  -834.059987978     A.U. after   23 cycles
 Optimization completed.
    -- Stationary point found.
 Normal termination of Gaussian 09 at Tue Jan 25 02:46:13 2005.

 ----------------------------------------------------------------------
 #P Geom=AllCheck Guess=TCheck SCRF=Check GenChk UB3LYP/Aug-CC-pVDZ Fre
 q
 ----------------------------------------------------------------------

 C13H18N6++-UB3LYP-aug-cc-pVDZ-Triplet
 -------------------------------------
 Redundant internal coordinates taken from checkpoint file:
 C13H18N6++-UB3LYP-aug-cc-pVDZ-Triplet.chk
 Charge =  2 Multiplicity = 3

                         Standard orientation:
 ---------------------------------------------------------------------
 Center     Atomic      Atomic             Coordinates (Angstroms)
 Number     Number       Type             X           Y           Z
 ---------------------------------------------------------------------
      1          6           0       -5.003250    0.301158    0.652738
      2          6           0       -4.481762   -1.020824    0.920711
      3          7           0       -3.128489    0.120365   -0.428025
      4          6           0       -4.086486    1.000861   -0.231503
      5          7           0       -3.348910   -1.119251    0.269126
      6          6           0       -4.230793    2.368150   -0.780221
      7          1           0       -5.132521    2.409779   -1.411781
      8          1           0       -4.397036    3.074778    0.046502
      9          1           0       -3.366164    2.690200   -1.366291
     10          6           0       -5.065128   -2.102234    1.754633
     11          1           0       -5.198791   -1.749418    2.787337
     12          1           0       -6.060548   -2.371241    1.372876
     13          1           0       -4.418327   -2.984486    1.746096
     14          6           0       -1.928076    0.166225   -1.268380
     15          1           0       -1.977780    1.082392   -1.865276
     16          1           0       -2.005402   -0.695637   -1.945931
     17          6           0       -0.640302    0.100525   -0.428729
     18          1           0       -0.574464    0.981205    0.221195
     19          1           0       -0.660684   -0.793506    0.206412
     20          6           0        0.587611    0.059787   -1.352946
     21          1           0        0.594105    0.919755   -2.036442
     22          1           0        0.605918   -0.855138   -1.954123
     23          7           0        1.842868    0.109361   -0.592494
     24          6           0        2.887687   -0.725332   -0.661560
     25          6           0        3.833901   -0.129913    0.211160
     26          6           0        3.247960    1.076932    0.751768
     27          7           0        2.041763    1.189982    0.241251
     28          6           0        2.984189   -1.958899   -1.493368
     29          1           0        2.168939   -2.657802   -1.262360
     30          1           0        2.937528   -1.713413   -2.563860
     31          1           0        3.931373   -2.477068   -1.309653
     32          6           0        3.838362    2.056896    1.705505
     33          1           0        4.087874    1.574988    2.661496
     34          1           0        4.760034    2.495190    1.297086
     35          1           0        3.120754    2.861441    1.892636
     36          7           0        5.061247   -0.608796    0.474828
     37          7           0        6.091766   -0.970520    0.721774
 ---------------------------------------------------------------------

 SCF Done:  E(UB3LYP) =  -834.059987977     A.U. after    4 cycles

 The electronic state is 3-A.
 Alpha  occ. eigenvalues --  -14.77804 -14.73490 -14.70988 -14.68386 -14.64603
 Alpha  occ. eigenvalues --  -14.61213 -10.54708 -10.53626 -10.52642 -10.52183
 Alpha  occ. eigenvalues --  -10.50983 -10.49743 -10.49657 -10.48900 -10.44978
 Alpha  occ. eigenvalues --  -10.44908 -10.44572 -10.41516 -10.41357  -1.42718
 Alpha  occ. eigenvalues --   -1.33770  -1.32302  -1.15696  -1.15342  -1.12597
 Alpha  occ. eigenvalues --   -1.09856  -1.05807  -1.01836  -0.98938  -0.98432
 Alpha  occ. eigenvalues --   -0.96523  -0.95926  -0.92077  -0.87653  -0.86513
 Alpha  occ. eigenvalues --   -0.83639  -0.82763  -0.81940  -0.78551  -0.77935
 Alpha  occ. eigenvalues --   -0.76325  -0.75128  -0.74745  -0.74010  -0.73327
 Alpha  occ. eigenvalues --   -0.71790  -0.69825  -0.68579  -0.67815  -0.67235
 Alpha  occ. eigenvalues --   -0.66832  -0.66412  -0.66199  -0.65930  -0.65699
 Alpha  occ. eigenvalues --   -0.64351  -0.63968  -0.62603  -0.62241  -0.61858
 Alpha  occ. eigenvalues --   -0.61371  -0.60941  -0.60134  -0.55483  -0.55004
 Alpha  occ. eigenvalues --   -0.54819  -0.54618  -0.53185  -0.51721
 Alpha virt. eigenvalues --   -0.33771  -0.33608  -0.28348  -0.25329  -0.24028
 Alpha virt. eigenvalues --   -0.21933  -0.21167  -0.19561  -0.19158  -0.18546
 Alpha virt. eigenvalues --   -0.18203  -0.17979  -0.17468  -0.16996  -0.16209

  Beta  occ. eigenvalues --  -14.77804 -14.73489 -14.70623 -14.68384 -14.64040
  Beta  occ. eigenvalues --  -14.61213 -10.54574 -10.52642 -10.52182 -10.51104
  Beta  occ. eigenvalues --  -10.51028 -10.49732 -10.49657 -10.48894 -10.44968
  Beta  occ. eigenvalues --  -10.44882 -10.44572 -10.41508 -10.41357  -1.42717
  Beta  occ. eigenvalues --   -1.32521  -1.32297  -1.15460  -1.14866  -1.12583
  Beta  occ. eigenvalues --   -1.08431  -1.05241  -1.01447  -0.98864  -0.97352
  Beta  occ. eigenvalues --   -0.96415  -0.95369  -0.91058  -0.87390  -0.85488
  Beta  occ. eigenvalues --   -0.83611  -0.82713  -0.80873  -0.78542  -0.77371
  Beta  occ. eigenvalues --   -0.75476  -0.74872  -0.74696  -0.73835  -0.72593
  Beta  occ. eigenvalues --   -0.71471  -0.69353  -0.68496  -0.67664  -0.66885
  Beta  occ. eigenvalues --   -0.66547  -0.66167  -0.65945  -0.65666  -0.65012
  Beta  occ. eigenvalues --   -0.64335  -0.63852  -0.62210  -0.61881  -0.61581
  Beta  occ. eigenvalues --   -0.61333  -0.60284  -0.57215  -0.55465  -0.53541
  Beta  occ. eigenvalues --   -0.53156  -0.51728
  Beta virt. eigenvalues --   -0.42950  -0.38408  -0.33770  -0.33601  -0.25980
  Beta virt. eigenvalues --   -0.25252  -0.21921  -0.21086  -0.20698  -0.19487
  Beta virt. eigenvalues --   -0.19133  -0.18445  -0.18194  -0.17761  -0.17367

 Mulliken atomic charges:
              1
     1  C   -0.649287
     2  C   -0.084305
     3  N    0.329850
     4  C   -0.101782
     5  N   -0.235687
     6  C    1.211192
     7  H   -0.063026
     8  H   -0.072280
     9  H   -0.500595
    10  C    1.197950
    11  H   -0.079218
    12  H   -0.074502
    13  H   -0.330768
    14  C    1.443258
    15  H   -0.540893
    16  H   -0.500456
    17  C    1.204921
    18  H   -0.495770
    19  H   -0.511575
    20  C    1.340016
    21  H   -0.506276
    22  H   -0.706172
    23  N    0.110933
    24  C   -0.460526
    25  C    0.849370
    26  C   -0.466840
    27  N   -0.196776
    28  C    0.990810
    29  H   -0.028415
    30  H    0.009910
    31  H   -0.407997
    32  C    1.056130
    33  H   -0.063647
    34  H   -0.064209
    35  H   -0.371216
    36  N    0.366977
    37  N   -0.599099
 Sum of Mulliken atomic charges =   2.00000

 Dipole moment (field-independent basis, Debye):
    X=             -1.9484    Y=             -0.0630    Z=             -1.1282  Tot=              2.2523
 Quadrupole moment (field-independent basis, Debye-Ang):
   XX=             60.3666   YY=            -80.8999   ZZ=            -86.8329
   XY=            -10.6082   XZ=             -0.4834   YZ=             -0.3021

  Exact polarizability: 261.803 -18.245 183.861   4.432  -0.493 153.786
 Approx polarizability: 386.128 -56.668 281.104  12.940   2.088 236.797

                     1                      2                      3
                     A                      A                      A
 Frequencies --    13.7703                23.0961                37.8937
 Red. masses --     3.8648                 4.7175                 5.0420
 Frc consts  --     0.0004                 0.0015                 0.0043
 IR Inten    --     1.3358                 1.4358                 1.4803

                     4                      5                      6
                     A                      A                      A
 Frequencies --    61.0042                79.1901                82.6909
 Red. masses --     4.2732                 1.0917                 1.9045
 Frc consts  --     0.0094                 0.0040                 0.0077
 IR Inten    --     0.0796                 0.5691                 1.0689

                     7                      8                      9
                     A                      A                      A
 Frequencies --    97.2083               101.9730               111.0214
 Red. masses --     1.4091                 1.8989                 1.1950
 Frc consts  --     0.0078                 0.0116                 0.0087
 IR Inten    --     0.1689                 0.1121                 1.2611

                    10                     11                     12
                     A                      A                      A
 Frequencies --   128.9184               132.7599               144.9196
 Red. masses --     1.3736                 5.3309                 1.7556
 Frc consts  --     0.0135                 0.0554                 0.0217
 IR Inten    --     0.7528                 0.3034                 0.9136

                    13                     14                     15
                     A                      A                      A
 Frequencies --   180.9160               186.1081               199.1643
 Red. masses --     3.2843                 3.9664                 4.0382
 Frc consts  --     0.0633                 0.0809                 0.0944
 IR Inten    --     2.6080                 0.2180                 1.2439

                    16                     17                     18
                     A                      A                      A
 Frequencies --   240.0542               249.7031               265.0668
 Red. masses --     4.5678                 2.9750                 2.7549
 Frc consts  --     0.1551                 0.1093                 0.1140
 IR Inten    --     3.5107                 1.6628                 0.9569

                    19                     20                     21
                     A                      A                      A
 Frequencies --   270.1318               303.6722               325.7941
 Red. masses --     2.8477                 2.6895                 3.5654
 Frc consts  --     0.1224                 0.1461                 0.2230
 IR Inten    --     0.8797                 0.0785                 3.4386

                    22                     23                     24
                     A                      A                      A
 Frequencies --   360.9036               399.6087               428.3357
 Red. masses --     3.7073                 4.0819                 4.7203
 Frc consts  --     0.2845                 0.3840                 0.5103
 IR Inten    --     0.0176                 9.1914                 4.3412

                    25                     26                     27
                     A                      A                      A
 Frequencies --   481.7310               525.1491               532.0985
 Red. masses --     3.3539                10.5633                 6.2200
 Frc consts  --     0.4586                 1.7164                 1.0376
 IR Inten    --     2.7588                 1.2925                 3.2730

                    28                     29                     30
                     A                      A                      A
 Frequencies --   566.8449               580.4608               595.4600
 Red. masses --     4.5587                 5.4593                 4.2447
 Frc consts  --     0.8630                 1.0838                 0.8868
 IR Inten    --     2.3971                 8.9491                 5.6814

                    31                     32                     33
                     A                      A                      A
 Frequencies --   613.4858               635.6221               650.3869
 Red. masses --     5.1973                 5.2969                 4.1194
 Frc consts  --     1.1525                 1.2609                 1.0267
 IR Inten    --     0.6994                 3.2458                 0.4243

                    34                     35                     36
                     A                      A                      A
 Frequencies --   658.2575               670.1805               704.3626
 Red. masses --     4.8405                 5.6302                 4.8782
 Frc consts  --     1.2358                 1.4899                 1.4259
 IR Inten    --     1.1436                 8.0391                13.0692

                    37                     38                     39
                     A                      A                      A
 Frequencies --   749.6589               799.9005               846.1031
 Red. masses --     1.1311                 4.5376                 1.5700
 Frc consts  --     0.3745                 1.7106                 0.6622
 IR Inten    --     2.8484                 0.3504                 1.4430

                    40                     41                     42
                     A                      A                      A
 Frequencies --   875.1237               917.9613               924.3604
 Red. masses --     3.2905                 2.4840                 4.6262
 Frc consts  --     1.4847                 1.2332                 2.3290
 IR Inten    --     4.7225                 4.9457                16.5503

                    43                     44                     45
                     A                      A                      A
 Frequencies --   994.1321              1000.6320              1013.7547
 Red. masses --     2.0878                 2.1066                 1.6082
 Frc consts  --     1.2157                 1.2428                 0.9738
 IR Inten    --    21.3130                 5.6201                 0.6957

                    46                     47                     48
                     A                      A                      A
 Frequencies --  1027.6200              1032.7568              1033.5240
 Red. masses --     2.5172                 1.5896                 1.6354
 Frc consts  --     1.5661                 0.9989                 1.0292
 IR Inten    --     4.6422                 2.5110                 1.8338

                    49                     50                     51
                     A                      A                      A
 Frequencies --  1034.8980              1041.7260              1044.6028
 Red. masses --     2.1158                 1.8737                 3.0987
 Frc consts  --     1.3351                 1.1980                 1.9922
 IR Inten    --     5.4669                 0.2707                13.3484

                    52                     53                     54
                     A                      A                      A
 Frequencies --  1045.8015              1081.2090              1134.3039
 Red. masses --     1.5650                 2.8072                 3.7978
 Frc consts  --     1.0085                 1.9335                 2.8790
 IR Inten    --     2.5943                14.9754                 0.1671

                    55                     56                     57
                     A                      A                      A
 Frequencies --  1154.3109              1183.3600              1250.3484
 Red. masses --     2.8842                 3.6153                 1.5900
 Frc consts  --     2.2642                 2.9828                 1.4645
 IR Inten    --     1.0841                 2.8406                 1.5217

                    58                     59                     60
                     A                      A                      A
 Frequencies --  1281.1246              1292.8009              1297.4740
 Red. masses --     2.3629                 1.9184                 3.2197
 Frc consts  --     2.2850                 1.8891                 3.1935
 IR Inten    --     0.9153                12.8860                34.0714

                    61                     62                     63
                     A                      A                      A
 Frequencies --  1319.3886              1330.5540              1351.4986
 Red. masses --     1.1558                 1.2439                 2.0675
 Frc consts  --     1.1854                 1.2975                 2.2250
 IR Inten    --     0.4170                11.8030                 2.1508

                    64                     65                     66
                     A                      A                      A
 Frequencies --  1383.0252              1385.8694              1397.6553
 Red. masses --     1.6433                 1.5831                 1.4500
 Frc consts  --     1.8520                 1.7915                 1.6688
 IR Inten    --    95.8497                59.5888                58.3554

                    67                     68                     69
                     A                      A                      A
 Frequencies --  1402.2614              1405.1814              1407.8558
 Red. masses --     1.4791                 1.2287                 1.4046
 Frc consts  --     1.7136                 1.4294                 1.6402
 IR Inten    --    18.9466                10.0167                43.5787

                    70                     71                     72
                     A                      A                      A
 Frequencies --  1414.5435              1426.2259              1433.3829
 Red. masses --     1.6900                 1.0607                 1.6240
 Frc consts  --     1.9924                 1.2712                 1.9659
 IR Inten    --    62.5132                12.5613               114.6759

                    73                     74                     75
                     A                      A                      A
 Frequencies --  1435.8710              1437.3740              1440.1474
 Red. masses --     1.1121                 1.0435                 1.1439
 Frc consts  --     1.3509                 1.2702                 1.3978
 IR Inten    --    11.7767                16.9662                40.7165

                    76                     77                     78
                     A                      A                      A
 Frequencies --  1449.9050              1452.3993              1454.6059
 Red. masses --     1.0449                 1.0402                 1.2799
 Frc consts  --     1.2943                 1.2928                 1.5956
 IR Inten    --    14.4711                14.4837                 9.9960

                    79                     80                     81
                     A                      A                      A
 Frequencies --  1472.4437              1477.1587              1493.2222
 Red. masses --     1.0853                 1.1250                 1.1431
 Frc consts  --     1.3863                 1.4463                 1.5017
 IR Inten    --     3.5712                13.6915                11.6862

                    82                     83                     84
                     A                      A                      A
 Frequencies --  1505.8516              1550.0094              1559.7886
 Red. masses --     1.8789                 7.2525                 6.7149
 Frc consts  --     2.5103                10.2661                 9.6255
 IR Inten    --    37.8230                44.7967                38.3587

                    85                     86                     87
                     A                      A                      A
 Frequencies --  1580.0018              1609.8548              2304.5314
 Red. masses --     7.4042                 6.7310                13.9612
 Frc consts  --    10.8904                10.2779                43.6855
 IR Inten    --    84.1462                41.1225               355.9249

                    88                     89                     90
                     A                      A                      A
 Frequencies --  3031.9089              3042.9894              3044.2215
 Red. masses --     1.0408                 1.0376                 1.0386
 Frc consts  --     5.6369                 5.6609                 5.6707
 IR Inten    --    39.7885                15.1210                 1.9534

                    91                     92                     93
                     A                      A                      A
 Frequencies --  3044.8187              3063.5828              3066.3670
 Red. masses --     1.0386                 1.0637                 1.0644
 Frc consts  --     5.6733                 5.8821                 5.8969
 IR Inten    --     2.8384                 1.5539                 1.2863

                    94                     95                     96
                     A                      A                      A
 Frequencies --  3079.1065              3090.1740              3107.0512
 Red. masses --     1.0608                 1.0973                 1.0998
 Frc consts  --     5.9255                 6.1734                 6.2555
 IR Inten    --     4.2087                 4.8473                 0.8968

                    97                     98                     99
                     A                      A                      A
 Frequencies --  3107.7356              3112.7496              3122.2360
 Red. masses --     1.1010                 1.1013                 1.1033
 Frc consts  --     6.2652                 6.2870                 6.3370
 IR Inten    --     0.0424                 0.2875                 0.7746

                   100                    101                    102
                     A                      A                      A
 Frequencies --  3139.7131              3146.0191              3149.4326
 Red. masses --     1.1018                 1.1009                 1.1042
 Frc consts  --     6.3994                 6.4200                 6.4529
 IR Inten    --     1.9503                 0.4078                 0.7105

                   103                    104                    105
                     A                      A                      A
 Frequencies --  3159.4974              3164.5279              3167.1649
 Red. masses --     1.1010                 1.1027                 1.1002
 Frc consts  --     6.4754                 6.5063                 6.5021
 IR Inten    --     0.3042                 4.0511                 4.0509

 - Thermochemistry -
 -------------------
 Temperature   298.150 Kelvin.  Pressure   1.00000 Atm.
 Atom     1 has atomic number  6 and mass  12.00000

 Molecular mass:   258.15929 amu.
 Principal axes and moments of inertia in atomic units:
                           1         2         3
     Eigenvalues --  2322.87602********************
           X            1.00000   0.00245  -0.00187
           Y           -0.00242   0.99983   0.01838
           Z            0.00191  -0.01837   0.99983
 This molecule is an asymmetric top.
 Rotational symmetry number  1.
 Warning -- assumption of classical behavior for rotation
           may cause significant error
 Rotational temperatures (Kelvin)      0.03729     0.00644     0.00620
 Rotational constants (GHZ):           0.77694     0.13426     0.12924
 Zero-point vibrational energy     792019.6 (Joules/Mol)
                                  189.29722 (Kcal/Mol)
 Warning -- explicit consideration of  31 degrees of freedom as
           vibrations may cause significant error
 Vibrational temperatures:     19.81    33.23    54.52    87.77   113.94
          (Kelvin)            118.97   139.86   146.72   159.73   185.48
                              191.01   208.51   260.30   267.77   286.55
                              345.38   359.27   381.37   388.66   436.92
                              468.74   519.26   574.95   616.28   693.10
                              755.57   765.57   815.56   835.15   856.73
                              882.67   914.52   935.76   947.08   964.24
                             1013.42  1078.59  1150.88  1217.35  1259.11
                             1320.74  1329.95  1430.33  1439.68  1458.57
                             1478.51  1485.90  1487.01  1488.99  1498.81
                             1502.95  1504.67  1555.62  1632.01  1660.79
                             1702.59  1798.97  1843.25  1860.05  1866.77
                             1898.30  1914.37  1944.50  1989.86  1993.95
                             2010.91  2017.54  2021.74  2025.59  2035.21
                             2052.02  2062.32  2065.90  2068.06  2072.05
                             2086.09  2089.68  2092.85  2118.52  2125.30
                             2148.41  2166.58  2230.12  2244.19  2273.27
                             2316.22  3315.70  4362.24  4378.18  4379.95
                             4380.81  4407.81  4411.81  4430.14  4446.07
                             4470.35  4471.33  4478.55  4492.20  4517.34
                             4526.41  4531.33  4545.81  4553.04  4556.84

 Zero-point correction=                           0.301664 (Hartree/Particle)
 Thermal correction to Energy=                    0.322091
 Thermal correction to Enthalpy=                  0.323035
 Thermal correction to Gibbs Free Energy=         0.248697
 Sum of electronic and zero-point Energies=           -833.758324
 Sum of electronic and thermal Energies=              -833.737897
 Sum of electronic and thermal Enthalpies=            -833.736953
 Sum of electronic and thermal Free Energies=         -833.811291

                     E (Thermal)             CV                S
                      KCal/Mol        Cal/Mol-Kelvin    Cal/Mol-Kelvin
 Total                  202.115             73.083            156.458
 Electronic               0.000              0.000              2.183
 Translational            0.889              2.981             42.545
 Rotational               0.889              2.981             34.432
 Vibrational            200.337             67.122             77.297
 Vibration     1          0.593              1.986              7.375
 Vibration     2          0.593              1.985              6.348
 Vibration     3          0.594              1.982              5.366
 Vibration     4          0.597              1.973              4.424
 Vibration     5          0.600              1.963              3.911
 Vibration     6          0.600              1.961              3.826
 Vibration     7          0.603              1.951              3.510
 Vibration     8          0.604              1.948              3.416
 Vibration     9          0.607              1.940              3.251
 Vibration    10          0.611              1.924              2.962
 Vibration    11          0.613              1.921              2.906
 Vibration    12          0.616              1.908              2.738
 Vibration    13          0.630              1.866              2.319
 Vibration    14          0.632              1.859              2.266
 Vibration    15          0.637              1.841              2.141
 Vibration    16          0.657              1.779              1.802
 Vibration    17          0.662              1.763              1.733
 Vibration    18          0.671              1.737              1.628
 Vibration    19          0.674              1.728              1.595
 Vibration    20          0.695              1.667              1.397
 Vibration    21          0.710              1.624              1.281
 Vibration    22          0.735              1.553              1.118
 Vibration    23          0.766              1.471              0.964
 Vibration    24          0.790              1.409              0.864
 Vibration    25          0.838              1.291              0.705
 Vibration    26          0.880              1.194              0.598
 Vibration    27          0.887              1.179              0.583
 Vibration    28          0.923              1.103              0.510
 Vibration    29          0.937              1.074              0.485
 Vibration    30          0.953              1.041              0.458
 Vibration    31          0.973              1.003              0.427

 Normal termination of Gaussian 09 at Tue Jan 25 09:46:06 2005.
