 Gaussian 09, Revision B.01,
 Gaussian 09:  EM64L-G09RevB.01 12-Aug-2010

 -------------------------------------------------
 #p Temperature=298.15 opt freq UB3LYP/aug-cc-pVDZ
 -------------------------------------------------

 -------------------------------------
 C13H18N8++-UB3LYP-aug-cc-pVDZ-Singlet
 -------------------------------------
 Symbolic Z-matrix:
 Charge =  2 Multiplicity = 1

 SCF Done:  E(UB3LYP) =  -943.577079499     A.U. after   19 cycles
 SCF Done:  E(UB3LYP) =  -943.644905561     A.U. after   20 cycles
 SCF Done:  E(UB3LYP) =  -943.671765131     A.U. after   26 cycles
 SCF Done:  E(UB3LYP) =  -943.677719216     A.U. after   19 cycles
 SCF Done:  E(UB3LYP) =  -943.679365762     A.U. after   20 cycles
 SCF Done:  E(UB3LYP) =  -943.681466163     A.U. after  127 cycles
 SCF Done:  E(UB3LYP) =  -943.683208427     A.U. after   20 cycles
 SCF Done:  E(UB3LYP) =  -943.684011902     A.U. after   20 cycles
 SCF Done:  E(UB3LYP) =  -943.684569409     A.U. after   20 cycles
 SCF Done:  E(UB3LYP) =  -943.684812075     A.U. after   25 cycles
 SCF Done:  E(UB3LYP) =  -943.685472293     A.U. after   19 cycles
 SCF Done:  E(UB3LYP) =  -943.685694343     A.U. after   51 cycles
 SCF Done:  E(UB3LYP) =  -943.685700803     A.U. after   21 cycles
 SCF Done:  E(UB3LYP) =  -943.685703312     A.U. after   19 cycles
 SCF Done:  E(UB3LYP) =  -943.685704172     A.U. after   15 cycles
 SCF Done:  E(UB3LYP) =  -943.685704751     A.U. after   45 cycles
 SCF Done:  E(UB3LYP) =  -943.685704911     A.U. after   27 cycles
 SCF Done:  E(UB3LYP) =  -943.685704909     A.U. after   20 cycles
 SCF Done:  E(UB3LYP) =  -943.685704901     A.U. after   15 cycles
 Optimization completed.
    -- Stationary point found.
 Normal termination of Gaussian 09 at Fri Mar  9 13:15:32 2018.

 ----------------------------------------------------------------------
 #P Geom=AllCheck Guess=TCheck SCRF=Check GenChk UB3LYP/Aug-CC-pVDZ Fre
 q
 ----------------------------------------------------------------------

 C13H18N8++-UB3LYP-aug-cc-pVDZ-Singlet
 -------------------------------------
 Redundant internal coordinates taken from checkpoint file:
 C13H18N8++-UB3LYP-aug-cc-pVDZ-Singlet.chk
 Charge =  2 Multiplicity = 1

                         Standard orientation:
 ---------------------------------------------------------------------
 Center     Atomic      Atomic             Coordinates (Angstroms)
 Number     Number       Type             X           Y           Z
 ---------------------------------------------------------------------
      1          7           0       -5.659118   -0.492033   -0.642532
      2          7           0       -6.681264   -0.826975   -0.954910
      3          6           0       -4.441008   -0.044449   -0.298555
      4          6           0       -3.818953    1.183526   -0.742682
      5          7           0       -2.485813    0.124496    0.605865
      6          6           0       -3.539654   -0.699538    0.580164
      7          7           0       -2.636008    1.252075   -0.173926
      8          6           0       -3.685397   -1.977123    1.334879
      9          1           0       -3.696080   -1.791546    2.418306
     10          1           0       -4.623083   -2.477890    1.071393
     11          1           0       -2.860909   -2.666809    1.109956
     12          6           0       -4.355821    2.223792   -1.663804
     13          1           0       -4.566164    1.800855   -2.656398
     14          1           0       -5.290595    2.649820   -1.272618
     15          1           0       -3.622175    3.028455   -1.771633
     16          6           0       -1.259273    0.011141    1.406472
     17          1           0       -1.340910   -0.905763    1.999401
     18          1           0       -1.253428    0.865847    2.096081
     19          6           0        0.000043   -0.000327    0.526936
     20          1           0       -0.000367   -0.887750   -0.117362
     21          1           0        0.000522    0.887857   -0.116310
     22          6           0        1.259277   -0.012861    1.406587
     23          1           0        1.253338   -0.868378    2.095183
     24          1           0        1.340905    0.903352    2.000586
     25          7           0        2.485882   -0.125340    0.605965
     26          6           0        3.539467    0.699030    0.580805
     27          6           0        4.440973    0.044861   -0.298446
     28          6           0        3.819256   -1.182965   -0.743461
     29          7           0        2.636364   -1.252287   -0.174679
     30          6           0        3.684791    1.976142    1.336397
     31          1           0        2.860624    2.666113    1.111125
     32          1           0        3.694462    1.789943    2.419723
     33          1           0        4.622814    2.476879    1.074060
     34          6           0        4.356404   -2.222422   -1.665333
     35          1           0        4.567036   -1.798647   -2.657505
     36          1           0        5.291073   -2.648762   -1.274225
     37          1           0        3.622815   -3.027018   -1.774045
     38          7           0        5.658928    0.493057   -0.642175
     39          7           0        6.680955    0.828520   -0.954392
 ---------------------------------------------------------------------

 SCF Done:  E(UB3LYP) =  -943.685704898     A.U. after    8 cycles

 The electronic state is 1-A.
 Alpha  occ. eigenvalues --  -14.77187 -14.77187 -14.72822 -14.72822 -14.67620
 Alpha  occ. eigenvalues --  -14.67620 -14.60512 -14.60512 -10.51929 -10.51929
 Alpha  occ. eigenvalues --  -10.51515 -10.51515 -10.48988 -10.48988 -10.47762
 Alpha  occ. eigenvalues --  -10.47760 -10.43946 -10.43946 -10.43289 -10.40816
 Alpha  occ. eigenvalues --  -10.40815  -1.42078  -1.42077  -1.31592  -1.31551
 Alpha  occ. eigenvalues --   -1.14847  -1.14660  -1.12017  -1.11695  -1.05872
 Alpha  occ. eigenvalues --   -1.03120  -0.99881  -0.97919  -0.95810  -0.95615
 Alpha  occ. eigenvalues --   -0.94037  -0.89143  -0.86113  -0.83228  -0.82756
 Alpha  occ. eigenvalues --   -0.82095  -0.81805  -0.77949  -0.77882  -0.76523
 Alpha  occ. eigenvalues --   -0.74622  -0.74159  -0.74062  -0.73810  -0.73189
 Alpha  occ. eigenvalues --   -0.72884  -0.71617  -0.70051  -0.68207  -0.67523
 Alpha  occ. eigenvalues --   -0.66447  -0.66073  -0.65844  -0.65279  -0.64820
 Alpha  occ. eigenvalues --   -0.64761  -0.63713  -0.63701  -0.62755  -0.61361
 Alpha  occ. eigenvalues --   -0.61126  -0.60879  -0.60589  -0.59030  -0.54854
 Alpha  occ. eigenvalues --   -0.54646  -0.52780  -0.52329  -0.51123  -0.50941
 Alpha virt. eigenvalues --   -0.33189  -0.33169  -0.33060  -0.32873  -0.24823
 Alpha virt. eigenvalues --   -0.24372  -0.21264  -0.20800  -0.19011  -0.18442
 Alpha virt. eigenvalues --   -0.18009  -0.17620  -0.17527  -0.17098  -0.16963

  Beta  occ. eigenvalues --  -14.77187 -14.77187 -14.72822 -14.72822 -14.67620
  Beta  occ. eigenvalues --  -14.67620 -14.60512 -14.60512 -10.51929 -10.51929
  Beta  occ. eigenvalues --  -10.51515 -10.51515 -10.48988 -10.48988 -10.47762
  Beta  occ. eigenvalues --  -10.47760 -10.43946 -10.43946 -10.43289 -10.40816
  Beta  occ. eigenvalues --  -10.40815  -1.42078  -1.42077  -1.31592  -1.31551
  Beta  occ. eigenvalues --   -1.14847  -1.14660  -1.12017  -1.11695  -1.05872
  Beta  occ. eigenvalues --   -1.03120  -0.99881  -0.97919  -0.95810  -0.95615
  Beta  occ. eigenvalues --   -0.94037  -0.89143  -0.86113  -0.83228  -0.82756
  Beta  occ. eigenvalues --   -0.82095  -0.81805  -0.77949  -0.77882  -0.76523
  Beta  occ. eigenvalues --   -0.74622  -0.74159  -0.74062  -0.73810  -0.73189
  Beta  occ. eigenvalues --   -0.72884  -0.71617  -0.70051  -0.68207  -0.67523
  Beta  occ. eigenvalues --   -0.66447  -0.66073  -0.65844  -0.65279  -0.64820
  Beta  occ. eigenvalues --   -0.64761  -0.63713  -0.63701  -0.62755  -0.61361
  Beta  occ. eigenvalues --   -0.61126  -0.60879  -0.60589  -0.59030  -0.54854
  Beta  occ. eigenvalues --   -0.54646  -0.52780  -0.52329  -0.51123  -0.50941
  Beta virt. eigenvalues --   -0.33189  -0.33169  -0.33060  -0.32873  -0.24823
  Beta virt. eigenvalues --   -0.24372  -0.21264  -0.20800  -0.19011  -0.18442
  Beta virt. eigenvalues --   -0.18009  -0.17620  -0.17527  -0.17098  -0.16963

 Mulliken atomic charges:
              1
     1  N    0.367966
     2  N   -0.603374
     3  C    0.840185
     4  C   -0.481520
     5  N    0.132583
     6  C   -0.421777
     7  N   -0.195536
     8  C    0.963847
     9  H    0.006394
    10  H   -0.404567
    11  H   -0.032606
    12  C    1.059568
    13  H   -0.064597
    14  H   -0.066093
    15  H   -0.369719
    16  C    1.375832
    17  H   -0.703566
    18  H   -0.513322
    19  C    1.254931
    20  H   -0.517247
    21  H   -0.517165
    22  C    1.375964
    23  H   -0.513311
    24  H   -0.703546
    25  N    0.132530
    26  C   -0.421828
    27  C    0.840405
    28  C   -0.481859
    29  N   -0.195667
    30  C    0.963821
    31  H   -0.032247
    32  H    0.006295
    33  H   -0.404718
    34  C    1.059757
    35  H   -0.064692
    36  H   -0.065972
    37  H   -0.369700
    38  N    0.367954
    39  N   -0.603401
 Sum of Mulliken atomic charges =   2.00000

 Dipole moment (field-independent basis, Debye):
    X=             -0.0009    Y=              0.0002    Z=              1.0260  Tot=              1.0260
 Quadrupole moment (field-independent basis, Debye-Ang):
   XX=             80.4183   YY=            -94.8371   ZZ=            -96.6638
   XY=             10.4958   XZ=              0.0022   YZ=             -0.0017

  Exact polarizability: 302.924  25.504 186.805   0.003   0.000 165.203
 Approx polarizability: 470.649  73.885 294.130   0.017  -0.004 260.869

                     1                      2                      3
                     A                      A                      A
 Frequencies --    12.1559                18.9380                29.8464
 Red. masses --     4.0540                 5.5658                 6.9137
 Frc consts  --     0.0004                 0.0012                 0.0036
 IR Inten    --     1.3245                 1.7902                 0.2987

                     4                      5                      6
                     A                      A                      A
 Frequencies --    60.0007                71.0358                89.4471
 Red. masses --     4.6785                 6.0764                 1.1068
 Frc consts  --     0.0099                 0.0181                 0.0052
 IR Inten    --     0.0218                 0.0154                 0.3971

                     7                      8                      9
                     A                      A                      A
 Frequencies --    91.4905               102.2563               102.2738
 Red. masses --     1.0387                 1.6534                 1.6754
 Frc consts  --     0.0051                 0.0102                 0.0103
 IR Inten    --     0.6490                 0.8679                 0.4146

                    10                     11                     12
                     A                      A                      A
 Frequencies --   106.0620               115.1846               132.5259
 Red. masses --     1.1186                 1.7302                 5.9535
 Frc consts  --     0.0074                 0.0135                 0.0616
 IR Inten    --     0.6706                 0.0016                 0.6628

                    13                     14                     15
                     A                      A                      A
 Frequencies --   133.1052               145.3712               181.5317
 Red. masses --     5.3580                 2.8497                 3.9088
 Frc consts  --     0.0559                 0.0355                 0.0759
 IR Inten    --     0.0476                 1.5624                 2.4499

                    16                     17                     18
                     A                      A                      A
 Frequencies --   193.6721               209.1088               248.5939
 Red. masses --     3.6263                 5.0318                 4.9867
 Frc consts  --     0.0801                 0.1296                 0.1816
 IR Inten    --     1.4717                 0.2836                 3.4404

                    19                     20                     21
                     A                      A                      A
 Frequencies --   251.1016               262.8637               267.2002
 Red. masses --     2.8795                 3.0435                 2.7704
 Frc consts  --     0.1070                 0.1239                 0.1165
 IR Inten    --     1.0845                 0.0215                 1.4045

                    22                     23                     24
                     A                      A                      A
 Frequencies --   294.1506               329.2763               361.3115
 Red. masses --     2.7028                 3.6110                 3.7742
 Frc consts  --     0.1378                 0.2307                 0.2903
 IR Inten    --     0.0000                 2.6824                 0.0019

                    25                     26                     27
                     A                      A                      A
 Frequencies --   399.4405               417.7927               446.4813
 Red. masses --     4.3584                 5.3172                 5.4488
 Frc consts  --     0.4097                 0.5468                 0.6400
 IR Inten    --     6.9113                 0.7287                 2.5715

                    28                     29                     30
                     A                      A                      A
 Frequencies --   524.5162               526.0232               531.4384
 Red. masses --     9.4276                11.7207                 6.6544
 Frc consts  --     1.5282                 1.9108                 1.1073
 IR Inten    --     2.7379                 1.5882                 5.4543

                    31                     32                     33
                     A                      A                      A
 Frequencies --   536.7906               595.0295               595.6303
 Red. masses --     5.6996                 4.1746                 4.0146
 Frc consts  --     0.9676                 0.8708                 0.8392
 IR Inten    --     0.5242                 7.8657                 3.9364

                    34                     35                     36
                     A                      A                      A
 Frequencies --   608.3742               632.0529               657.3909
 Red. masses --     4.4672                 5.1263                 4.9003
 Frc consts  --     0.9742                 1.2066                 1.2477
 IR Inten    --     3.0738                 0.2690                 1.1884

                    37                     38                     39
                     A                      A                      A
 Frequencies --   657.8365               665.4188               675.6271
 Red. masses --     4.7915                 5.9286                 5.5854
 Frc consts  --     1.2217                 1.5467                 1.5022
 IR Inten    --     1.6839                 0.2246                 8.7543

                    40                     41                     42
                     A                      A                      A
 Frequencies --   693.7645               720.6657               753.4339
 Red. masses --     4.8834                 4.7991                 1.1329
 Frc consts  --     1.3848                 1.4685                 0.3789
 IR Inten    --    32.1605                 1.7904                 1.5154

                    43                     44                     45
                     A                      A                      A
 Frequencies --   859.3432               860.7055               885.8008
 Red. masses --     1.3677                 3.6988                 3.1833
 Frc consts  --     0.5951                 1.6144                 1.4716
 IR Inten    --     0.0001                 4.3653                 4.9036

                    46                     47                     48
                     A                      A                      A
 Frequencies --   996.0073              1000.0434              1031.7402
 Red. masses --     2.1891                 2.2322                 1.8270
 Frc consts  --     1.2795                 1.3153                 1.1459
 IR Inten    --    29.0378                 0.0273                 1.0792

                    49                     50                     51
                     A                      A                      A
 Frequencies --  1032.6111              1035.7175              1042.0900
 Red. masses --     1.5500                 2.0340                 1.8766
 Frc consts  --     0.9738                 1.2855                 1.2007
 IR Inten    --     0.8715                 0.6098                 1.2227

                    52                     53                     54
                     A                      A                      A
 Frequencies --  1042.2732              1045.6458              1045.8544
 Red. masses --     1.9797                 1.5637                 1.6189
 Frc consts  --     1.2671                 1.0073                 1.0433
 IR Inten    --     0.2123                 2.2943                 1.1676

                    55                     56                     57
                     A                      A                      A
 Frequencies --  1048.4860              1050.3020              1093.3967
 Red. masses --     3.0898                 2.1498                 2.7024
 Frc consts  --     2.0012                 1.3973                 1.9035
 IR Inten    --     9.8727                37.2041                 0.3437

                    58                     59                     60
                     A                      A                      A
 Frequencies --  1150.2394              1172.4140              1193.4389
 Red. masses --     3.0492                 4.5210                 3.5873
 Frc consts  --     2.3769                 3.6614                 3.0103
 IR Inten    --     1.0191                 0.0230                 1.0808

                    61                     62                     63
                     A                      A                      A
 Frequencies --  1253.6296              1277.8018              1291.3593
 Red. masses --     1.8333                 3.5944                 4.0970
 Frc consts  --     1.6976                 3.4579                 4.0254
 IR Inten    --     0.4999                 0.9485                 0.0000

                    64                     65                     66
                     A                      A                      A
 Frequencies --  1294.9289              1327.9492              1333.5055
 Red. masses --     1.5026                 1.1159                 1.3187
 Frc consts  --     1.4845                 1.1594                 1.3816
 IR Inten    --     7.8861                 0.4920                 9.8322

                    67                     68                     69
                     A                      A                      A
 Frequencies --  1384.1283              1384.6335              1397.7717
 Red. masses --     1.9942                 2.0745                 1.3109
 Frc consts  --     2.2510                 2.3433                 1.5090
 IR Inten    --    19.2486               280.9888                 1.3869

                    70                     71                     72
                     A                      A                      A
 Frequencies --  1404.6146              1404.6401              1410.4070
 Red. masses --     1.2412                 1.2361                 1.4423
 Frc consts  --     1.4428                 1.4369                 1.6904
 IR Inten    --    21.2234                 3.6136                88.4402

                    73                     74                     75
                     A                      A                      A
 Frequencies --  1414.5287              1414.7447              1433.1942
 Red. masses --     1.7128                 1.6513                 1.6228
 Frc consts  --     2.0192                 1.9473                 1.9640
 IR Inten    --     0.0358               105.3131               190.2523

                    76                     77                     78
                     A                      A                      A
 Frequencies --  1434.5828              1450.3400              1450.8929
 Red. masses --     1.6092                 1.0440                 1.0472
 Frc consts  --     1.9513                 1.2939                 1.2988
 IR Inten    --    23.2768                15.7219                11.3894

                    79                     80                     81
                     A                      A                      A
 Frequencies --  1452.4370              1452.4746              1455.2395
 Red. masses --     1.0397                 1.0396                 1.2797
 Frc consts  --     1.2923                 1.2922                 1.5967
 IR Inten    --    12.9107                17.7432                12.6191

                    82                     83                     84
                     A                      A                      A
 Frequencies --  1455.3125              1476.7431              1477.0048
 Red. masses --     1.2822                 1.1182                 1.1570
 Frc consts  --     1.6000                 1.4367                 1.4871
 IR Inten    --     5.4339                 1.0584                39.9597

                    85                     86                     87
                     A                      A                      A
 Frequencies --  1495.0868              1505.8963              1506.9810
 Red. masses --     1.2047                 1.9889                 1.7796
 Frc consts  --     1.5865                 2.6573                 2.3812
 IR Inten    --     1.2219                56.5907                18.1378

                    88                     89                     90
                     A                      A                      A
 Frequencies --  1552.0646              1553.4023              1580.0850
 Red. masses --     6.8773                 7.0940                 7.4516
 Frc consts  --     9.7609                10.0858                10.9613
 IR Inten    --    82.0018                 6.2626               100.0881

                    91                     92                     93
                     A                      A                      A
 Frequencies --  1580.5297              2301.4505              2302.9200
 Red. masses --     7.4895                13.9594                13.9613
 Frc consts  --    11.0232                43.5633                43.6248
 IR Inten    --    58.7320               703.1134                44.9492

                    94                     95                     96
                     A                      A                      A
 Frequencies --  3044.1538              3044.1567              3045.4498
 Red. masses --     1.0385                 1.0385                 1.0385
 Frc consts  --     5.6703                 5.6703                 5.6747
 IR Inten    --     0.3923                 2.8721                 2.5904

                    97                     98                     99
                     A                      A                      A
 Frequencies --  3045.4689              3066.9405              3069.7432
 Red. masses --     1.0385                 1.0625                 1.0641
 Frc consts  --     5.6748                 5.8883                 5.9077
 IR Inten    --     2.3761                 1.8593                 0.5790

                   100                    101                    102
                     A                      A                      A
 Frequencies --  3080.9323              3107.4956              3107.4999
 Red. masses --     1.0610                 1.1010                 1.1010
 Frc consts  --     5.9339                 6.2641                 6.2641
 IR Inten    --     7.1910                 0.0293                 0.1542

                   103                    104                    105
                     A                      A                      A
 Frequencies --  3113.7295              3113.7665              3120.8005
 Red. masses --     1.1011                 1.1011                 1.1033
 Frc consts  --     6.2901                 6.2902                 6.3311
 IR Inten    --     0.2204                 0.2805                 0.7519

                   106                    107                    108
                     A                      A                      A
 Frequencies --  3137.6113              3145.0379              3145.7267
 Red. masses --     1.1022                 1.1019                 1.1011
 Frc consts  --     6.3928                 6.4215                 6.4195
 IR Inten    --     1.0948                 2.6276                 0.0227

                   109                    110                    111
                     A                      A                      A
 Frequencies --  3148.3387              3158.9059              3158.9093
 Red. masses --     1.1044                 1.1010                 1.1010
 Frc consts  --     6.4496                 6.4729                 6.4729
 IR Inten    --     1.4625                 0.3318                 0.1820

 - Thermochemistry -
 -------------------
 Temperature   298.150 Kelvin.  Pressure   1.00000 Atm.
 Atom     1 has atomic number  7 and mass  14.00307

 Molecular mass:   286.16544 amu.
 Principal axes and moments of inertia in atomic units:
                           1         2         3
     Eigenvalues --  2479.04474********************
           X            0.99999  -0.00343   0.00000
           Y            0.00343   0.99999   0.00003
           Z            0.00000  -0.00003   1.00000
 This molecule is an asymmetric top.
 Rotational symmetry number  1.
 Warning -- assumption of classical behavior for rotation
           may cause significant error
 Rotational temperatures (Kelvin)      0.03494     0.00488     0.00477
 Rotational constants (GHZ):           0.72800     0.10177     0.09944
 Zero-point vibrational energy     824216.7 (Joules/Mol)
                                  196.99251 (Kcal/Mol)
 Warning -- explicit consideration of  34 degrees of freedom as
           vibrations may cause significant error
 Vibrational temperatures:     17.49    27.25    42.94    86.33   102.20
          (Kelvin)            128.69   131.63   147.12   147.15   152.60
                              165.72   190.67   191.51   209.16   261.18
                              278.65   300.86   357.67   361.28   378.20
                              384.44   423.22   473.75   519.85   574.71
                              601.11   642.39   754.66   756.83   764.62
                              772.32   856.11   856.98   875.31   909.38
                              945.84   946.48   957.39   972.08   998.17
                             1036.88  1084.02  1236.40  1238.36  1274.47
                             1433.03  1438.84  1484.44  1485.70  1490.16
                             1499.33  1499.60  1504.45  1504.75  1508.54
                             1511.15  1573.15  1654.94  1686.84  1717.09
                             1803.69  1838.47  1857.98  1863.11  1910.62
                             1918.61  1991.45  1992.18  2011.08  2020.92
                             2020.96  2029.26  2035.19  2035.50  2062.04
                             2064.04  2086.71  2087.51  2089.73  2089.78
                             2093.76  2093.87  2124.70  2125.08  2151.09
                             2166.65  2168.21  2233.07  2235.00  2273.39
                             2274.03  3311.27  3313.38  4379.85  4379.86
                             4381.72  4381.74  4412.64  4416.67  4432.77
                             4470.99  4470.99  4479.96  4480.01  4490.13
                             4514.32  4525.00  4525.99  4529.75  4544.96
                             4544.96

 Zero-point correction=                           0.313928 (Hartree/Particle)
 Thermal correction to Energy=                    0.336198
 Thermal correction to Enthalpy=                  0.337142
 Thermal correction to Gibbs Free Energy=         0.259179
 Sum of electronic and zero-point Energies=           -943.371777
 Sum of electronic and thermal Energies=              -943.349507
 Sum of electronic and thermal Enthalpies=            -943.348563
 Sum of electronic and thermal Free Energies=         -943.426526

                     E (Thermal)             CV                S
                      KCal/Mol        Cal/Mol-Kelvin    Cal/Mol-Kelvin
 Total                  210.968             79.170            164.088
 Electronic               0.000              0.000              0.000
 Translational            0.889              2.981             42.852
 Rotational               0.889              2.981             35.033
 Vibrational            209.190             73.209             86.203
 Vibration     1          0.593              1.987              7.623
 Vibration     2          0.593              1.986              6.743
 Vibration     3          0.594              1.984              5.840
 Vibration     4          0.597              1.973              4.457
 Vibration     5          0.598              1.968              4.124
 Vibration     6          0.602              1.957              3.672
 Vibration     7          0.602              1.955              3.628
 Vibration     8          0.604              1.947              3.411
 Vibration     9          0.604              1.947              3.411
 Vibration    10          0.605              1.944              3.340
 Vibration    11          0.608              1.937              3.180
 Vibration    12          0.613              1.921              2.909
 Vibration    13          0.613              1.920              2.901
 Vibration    14          0.617              1.908              2.732
 Vibration    15          0.630              1.865              2.313
 Vibration    16          0.635              1.849              2.192
 Vibration    17          0.642              1.827              2.051
 Vibration    18          0.662              1.765              1.741
 Vibration    19          0.663              1.761              1.723
 Vibration    20          0.670              1.741              1.643
 Vibration    21          0.672              1.733              1.614
 Vibration    22          0.689              1.685              1.450
 Vibration    23          0.712              1.617              1.264
 Vibration    24          0.735              1.552              1.116
 Vibration    25          0.765              1.471              0.965
 Vibration    26          0.781              1.432              0.900
 Vibration    27          0.806              1.369              0.806
 Vibration    28          0.879              1.196              0.600
 Vibration    29          0.881              1.192              0.596
 Vibration    30          0.886              1.180              0.584
 Vibration    31          0.892              1.169              0.572
 Vibration    32          0.953              1.042              0.458
 Vibration    33          0.953              1.041              0.457
 Vibration    34          0.967              1.014              0.435

 Normal termination of Gaussian 09 at Fri Mar  9 22:19:40 2018.
