 Gaussian 09, Revision B.01,
 Gaussian 09:  EM64L-G09RevB.01 12-Aug-2010

 -------------------------------------------------
 #p Temperature=298.15 opt freq UB3LYP/aug-cc-pVDZ
 -------------------------------------------------

 ---------------------------------------------
 Continue/C13H18N6+-UB3LYP-aug-cc-pVDZ-Doublet
 ---------------------------------------------
 Symbolic Z-matrix:
 Charge =  1 Multiplicity = 2

 SCF Done:  E(UB3LYP) =  -834.138263773     A.U. after   28 cycles
 SCF Done:  E(UB3LYP) =  -834.257230388     A.U. after   17 cycles
 SCF Done:  E(UB3LYP) =  -834.378492834     A.U. after   29 cycles
 SCF Done:  E(UB3LYP) =  -834.417863577     A.U. after   35 cycles
 SCF Done:  E(UB3LYP) =  -834.425557791     A.U. after   27 cycles
 SCF Done:  E(UB3LYP) =  -834.427830352     A.U. after   28 cycles
 SCF Done:  E(UB3LYP) =  -834.429084131     A.U. after   27 cycles
 SCF Done:  E(UB3LYP) =  -834.429877663     A.U. after   27 cycles
 SCF Done:  E(UB3LYP) =  -834.431074781     A.U. after   25 cycles
 SCF Done:  E(UB3LYP) =  -834.431153223     A.U. after   17 cycles
 SCF Done:  E(UB3LYP) =  -834.433326536     A.U. after   20 cycles
 SCF Done:  E(UB3LYP) =  -834.433327702     A.U. after   17 cycles
 SCF Done:  E(UB3LYP) =  -834.433329628     A.U. after   16 cycles
 SCF Done:  E(UB3LYP) =  -834.433332286     A.U. after   17 cycles
 SCF Done:  E(UB3LYP) =  -834.433334142     A.U. after   18 cycles
 SCF Done:  E(UB3LYP) =  -834.433335481     A.U. after   18 cycles
 SCF Done:  E(UB3LYP) =  -834.433335771     A.U. after   12 cycles
 SCF Done:  E(UB3LYP) =  -834.433335891     A.U. after   20 cycles
 SCF Done:  E(UB3LYP) =  -834.433335927     A.U. after   16 cycles
 Optimization completed.
    -- Stationary point found.
 Normal termination of Gaussian 09 at Tue Feb 15 04:09:30 2005.

 ----------------------------------------------------------------------
 #P Geom=AllCheck Guess=TCheck SCRF=Check GenChk UB3LYP/Aug-CC-pVDZ Fre
 q
 ----------------------------------------------------------------------

 Continue/C13H18N6+-UB3LYP-aug-cc-pVDZ-Doublet
 ---------------------------------------------
 Redundant internal coordinates taken from checkpoint file:
 /home/ubuntu/g09/Gau-3338.chk
 Charge =  1 Multiplicity = 2

                         Standard orientation:
 ---------------------------------------------------------------------
 Center     Atomic      Atomic             Coordinates (Angstroms)
 Number     Number       Type             X           Y           Z
 ---------------------------------------------------------------------
      1          6           0       -4.874288    0.201823   -0.772373
      2          6           0       -4.131125    1.381219   -0.569302
      3          7           0       -3.033712   -0.300456    0.247544
      4          6           0       -4.180738   -0.868636   -0.248468
      5          7           0       -2.997496    1.052386    0.067598
      6          6           0       -4.510076   -2.324932   -0.178715
      7          1           0       -5.485313   -2.493030   -0.647466
      8          1           0       -3.771721   -2.942574   -0.711006
      9          1           0       -4.571118   -2.683062    0.859500
     10          6           0       -4.440362    2.794701   -0.944259
     11          1           0       -4.541214    2.900259   -2.033263
     12          1           0       -5.387406    3.120371   -0.493218
     13          1           0       -3.640234    3.458884   -0.598312
     14          6           0       -1.952418   -0.916048    0.991363
     15          1           0       -2.153574   -1.991143    1.056684
     16          1           0       -1.950663   -0.511393    2.015898
     17          6           0       -0.600448   -0.642979    0.313699
     18          1           0       -0.523475   -1.211134   -0.622326
     19          1           0       -0.565994    0.424306    0.061520
     20          6           0        0.569403   -0.998857    1.236158
     21          1           0        0.627805   -2.073686    1.437577
     22          1           0        0.494928   -0.469213    2.193416
     23          7           0        1.859577   -0.633242    0.631608
     24          6           0        2.501721    0.531034    0.727704
     25          6           0        3.639942    0.348389   -0.105916
     26          6           0        3.567208   -0.986795   -0.661537
     27          7           0        2.475638   -1.547713   -0.195769
     28          6           0        2.070145    1.703266    1.539678
     29          1           0        1.078695    2.054987    1.223455
     30          1           0        2.012771    1.437706    2.604554
     31          1           0        2.777898    2.532208    1.434106
     32          6           0        4.514107   -1.667974   -1.588344
     33          1           0        4.604903   -1.116410   -2.534782
     34          1           0        5.515903   -1.744899   -1.142506
     35          1           0        4.146034   -2.676100   -1.802284
     36          7           0        4.599571    1.252697   -0.323616
     37          7           0        5.424042    1.984706   -0.533034
 ---------------------------------------------------------------------

 SCF Done:  E(UB3LYP) =  -834.433335929     A.U. after    6 cycles

 The electronic state is 2-A.
 Alpha  occ. eigenvalues --  -14.70212 -14.65545 -14.59760 -14.53082 -14.49040
 Alpha  occ. eigenvalues --  -14.43109 -10.44283 -10.44209 -10.41660 -10.38101
 Alpha  occ. eigenvalues --  -10.36581 -10.34198 -10.34108 -10.32011 -10.31305
 Alpha  occ. eigenvalues --  -10.29662 -10.27980 -10.27888 -10.25573  -1.34956
 Alpha  occ. eigenvalues --   -1.23943  -1.13446  -1.07540  -1.04328  -0.96681
 Alpha  occ. eigenvalues --   -0.94637  -0.91641  -0.89394  -0.88292  -0.86100
 Alpha  occ. eigenvalues --   -0.81736  -0.79271  -0.78253  -0.75800  -0.74585
 Alpha  occ. eigenvalues --   -0.73305  -0.70882  -0.67741  -0.67133  -0.66687
 Alpha  occ. eigenvalues --   -0.65807  -0.64168  -0.62821  -0.60784  -0.60210
 Alpha  occ. eigenvalues --   -0.58981  -0.58717  -0.58011  -0.57093  -0.56641
 Alpha  occ. eigenvalues --   -0.55661  -0.54143  -0.52808  -0.52233  -0.51203
 Alpha  occ. eigenvalues --   -0.50282  -0.49762  -0.49117  -0.47747  -0.47260
 Alpha  occ. eigenvalues --   -0.47190  -0.45818  -0.45164  -0.44936  -0.43443
 Alpha  occ. eigenvalues --   -0.39824  -0.34177  -0.32909  -0.32706
 Alpha virt. eigenvalues --   -0.26363  -0.25918  -0.16787  -0.13985  -0.11418
 Alpha virt. eigenvalues --   -0.10840  -0.10390  -0.09299  -0.09109  -0.08639
 Alpha virt. eigenvalues --   -0.07902  -0.07650  -0.07414  -0.06783  -0.06221

  Beta  occ. eigenvalues --  -14.70213 -14.65545 -14.59760 -14.53081 -14.48960
  Beta  occ. eigenvalues --  -14.42948 -10.44283 -10.44209 -10.41660 -10.38099
  Beta  occ. eigenvalues --  -10.36581 -10.34198 -10.34094 -10.32008 -10.31289
  Beta  occ. eigenvalues --  -10.29626 -10.27876 -10.26417 -10.25569  -1.34956
  Beta  occ. eigenvalues --   -1.23943  -1.13047  -1.07540  -1.04326  -0.96613
  Beta  occ. eigenvalues --   -0.94435  -0.91594  -0.89021  -0.88224  -0.85734
  Beta  occ. eigenvalues --   -0.81676  -0.78743  -0.77989  -0.75714  -0.74582
  Beta  occ. eigenvalues --   -0.73026  -0.70880  -0.67670  -0.67132  -0.65907
  Beta  occ. eigenvalues --   -0.65612  -0.64161  -0.62450  -0.60731  -0.60148
  Beta  occ. eigenvalues --   -0.58745  -0.58685  -0.58003  -0.56968  -0.56606
  Beta  occ. eigenvalues --   -0.55631  -0.54137  -0.52730  -0.52065  -0.50995
  Beta  occ. eigenvalues --   -0.50261  -0.49722  -0.49007  -0.47715  -0.47193
  Beta  occ. eigenvalues --   -0.46943  -0.45750  -0.45021  -0.44728  -0.43422
  Beta  occ. eigenvalues --   -0.38028  -0.32804  -0.31617
  Beta virt. eigenvalues --   -0.26363  -0.25923  -0.18349  -0.16775  -0.13985
  Beta virt. eigenvalues --   -0.11418  -0.10838  -0.10385  -0.09289  -0.09111
  Beta virt. eigenvalues --   -0.08635  -0.07908  -0.07651  -0.07376  -0.06773

 Mulliken atomic charges:
              1
     1  C   -0.774869
     2  C   -0.191146
     3  N    0.170341
     4  C    0.104189
     5  N   -0.464284
     6  C    1.104895
     7  H   -0.359223
     8  H   -0.107205
     9  H   -0.103823
    10  C    1.192403
    11  H   -0.127508
    12  H   -0.136045
    13  H   -0.398712
    14  C    1.358592
    15  H   -0.712030
    16  H   -0.571991
    17  C    1.206333
    18  H   -0.478717
    19  H   -0.504012
    20  C    1.359785
    21  H   -0.594080
    22  H   -0.632661
    23  N    0.326414
    24  C   -0.448793
    25  C    0.929685
    26  C   -0.609524
    27  N   -0.391208
    28  C    0.989949
    29  H   -0.051899
    30  H   -0.062618
    31  H   -0.377078
    32  C    1.130905
    33  H   -0.068983
    34  H   -0.066561
    35  H   -0.360982
    36  N    0.357989
    37  N   -0.637529
 Sum of Mulliken atomic charges =   1.00000

 Dipole moment (field-independent basis, Debye):
    X=             12.2566    Y=              0.0408    Z=              1.5763  Tot=             12.3576
 Quadrupole moment (field-independent basis, Debye-Ang):
   XX=            -43.4632   YY=            -94.9491   ZZ=           -100.9698
   XY=             12.1403   XZ=             -5.2494   YZ=              1.6624

  Exact polarizability: 272.770  19.862 210.016  -7.566  -0.343 150.910
 Approx polarizability: 380.731  66.500 343.994 -13.421  -8.236 238.477

                     1                      2                      3
                     A                      A                      A
 Frequencies --    16.0441                18.2353                27.9939
 Red. masses --     4.3420                 4.0180                 5.3152
 Frc consts  --     0.0007                 0.0008                 0.0025
 IR Inten    --     1.3988                 1.5047                 1.0898

                     4                      5                      6
                     A                      A                      A
 Frequencies --    52.9571                60.5899                73.6339
 Red. masses --     3.8361                 1.1067                 4.0530
 Frc consts  --     0.0063                 0.0024                 0.0129
 IR Inten    --     0.4508                 0.3556                 0.5397

                     7                      8                      9
                     A                      A                      A
 Frequencies --    90.3328               112.6764               116.2250
 Red. masses --     1.0699                 1.8572                 1.5057
 Frc consts  --     0.0051                 0.0139                 0.0120
 IR Inten    --     0.1801                 0.7618                 0.8851

                    10                     11                     12
                     A                      A                      A
 Frequencies --   127.6662               131.1093               135.7835
 Red. masses --     1.3394                 2.1956                 2.3626
 Frc consts  --     0.0129                 0.0222                 0.0257
 IR Inten    --     0.2024                 0.0198                 1.5858

                    13                     14                     15
                     A                      A                      A
 Frequencies --   176.5883               189.4001               197.3388
 Red. masses --     2.9296                 3.6671                 3.7826
 Frc consts  --     0.0538                 0.0775                 0.0868
 IR Inten    --     5.1867                 2.1839                 1.3978

                    16                     17                     18
                     A                      A                      A
 Frequencies --   233.6546               254.3920               266.6935
 Red. masses --     4.6253                 2.6883                 3.0665
 Frc consts  --     0.1488                 0.1025                 0.1285
 IR Inten    --     2.8459                 1.1123                 1.2540

                    19                     20                     21
                     A                      A                      A
 Frequencies --   281.2316               295.4897               323.4701
 Red. masses --     2.5737                 2.8159                 3.6208
 Frc consts  --     0.1199                 0.1449                 0.2232
 IR Inten    --     0.5085                 1.9222                 3.0197

                    22                     23                     24
                     A                      A                      A
 Frequencies --   353.2142               419.0233               425.6075
 Red. masses --     4.0202                 4.8887                 3.8712
 Frc consts  --     0.2955                 0.5057                 0.4132
 IR Inten    --     1.7350                 2.1235                14.7391

                    25                     26                     27
                     A                      A                      A
 Frequencies --   506.8888               527.5283               533.4650
 Red. masses --     3.3567                10.9082                 5.9187
 Frc consts  --     0.5081                 1.7885                 0.9924
 IR Inten    --     0.3305                 1.2479                 2.3120

                    28                     29                     30
                     A                      A                      A
 Frequencies --   589.0861               595.7734               596.8759
 Red. masses --     4.2376                 3.9704                 5.0875
 Frc consts  --     0.8664                 0.8303                 1.0679
 IR Inten    --     0.9162                 9.8962                 2.9413

                    31                     32                     33
                     A                      A                      A
 Frequencies --   612.6401               636.7521               654.1783
 Red. masses --     4.7597                 6.7367                 5.0977
 Frc consts  --     1.0526                 1.6093                 1.2853
 IR Inten    --     4.7345                 3.5187                 1.3098

                    34                     35                     36
                     A                      A                      A
 Frequencies --   674.6245               675.5244               717.1240
 Red. masses --     4.6668                 5.2216                 4.7587
 Frc consts  --     1.2514                 1.4039                 1.4419
 IR Inten    --    14.8469                 9.5472                 2.5512

                    37                     38                     39
                     A                      A                      A
 Frequencies --   749.6463               829.5043               860.6116
 Red. masses --     1.1662                 3.7212                 1.4436
 Frc consts  --     0.3861                 1.5086                 0.6299
 IR Inten    --     1.5016                 5.3803                 1.3033

                    40                     41                     42
                     A                      A                      A
 Frequencies --   878.7007               985.0121               996.6453
 Red. masses --     3.3468                 1.6324                 2.1112
 Frc consts  --     1.5225                 0.9332                 1.2355
 IR Inten    --     4.5909                10.2792                10.6730

                    43                     44                     45
                     A                      A                      A
 Frequencies --  1016.7693              1025.0292              1032.7711
 Red. masses --     1.9325                 4.4275                 1.6226
 Frc consts  --     1.1771                 2.7408                 1.0197
 IR Inten    --    18.2247                16.9023                 0.6003

                    46                     47                     48
                     A                      A                      A
 Frequencies --  1038.3162              1042.7389              1044.6581
 Red. masses --     2.6088                 1.9259                 1.4643
 Frc consts  --     1.6571                 1.2337                 0.9415
 IR Inten    --     1.7959                 2.3775                 1.4835

                    49                     50                     51
                     A                      A                      A
 Frequencies --  1047.1977              1047.7826              1053.1739
 Red. masses --     1.5533                 1.4928                 2.1443
 Frc consts  --     1.0036                 0.9656                 1.4013
 IR Inten    --     3.0551                 1.4957                 9.5393

                    52                     53                     54
                     A                      A                      A
 Frequencies --  1057.9620              1102.4303              1155.5074
 Red. masses --     4.4084                 2.3983                 3.8107
 Frc consts  --     2.9072                 1.7173                 2.9978
 IR Inten    --    19.7302                 2.8669                 2.7285

                    55                     56                     57
                     A                      A                      A
 Frequencies --  1177.2020              1231.3600              1268.2044
 Red. masses --     3.0283                 2.1963                 1.8166
 Frc consts  --     2.4726                 1.9621                 1.7215
 IR Inten    --     7.4450                 4.5061                 6.1814

                    58                     59                     60
                     A                      A                      A
 Frequencies --  1282.7381              1295.3077              1316.1932
 Red. masses --     2.4616                 1.9721                 1.5859
 Frc consts  --     2.3864                 1.9495                 1.6187
 IR Inten    --     2.7684                 9.9424                32.4494

                    61                     62                     63
                     A                      A                      A
 Frequencies --  1328.0297              1374.7156              1376.7769
 Red. masses --     1.3677                 1.3643                 2.6555
 Frc consts  --     1.4212                 1.5191                 2.9656
 IR Inten    --     9.4873                27.7514                20.7745

                    64                     65                     66
                     A                      A                      A
 Frequencies --  1385.6303              1394.5811              1398.6461
 Red. masses --     2.0263                 1.3659                 1.3852
 Frc consts  --     2.2921                 1.5651                 1.5965
 IR Inten    --    95.8445                 2.2715                 3.8544

                    67                     68                     69
                     A                      A                      A
 Frequencies --  1401.5280              1406.5858              1413.3103
 Red. masses --     1.3262                 1.2297                 1.7508
 Frc consts  --     1.5348                 1.4335                 2.0604
 IR Inten    --    18.5879                 6.2929                80.0359

                    70                     71                     72
                     A                      A                      A
 Frequencies --  1428.6648              1433.9886              1451.1312
 Red. masses --     2.1985                 1.6607                 1.0404
 Frc consts  --     2.6438                 2.0120                 1.2909
 IR Inten    --    99.1631                72.6466                10.1409

                    73                     74                     75
                     A                      A                      A
 Frequencies --  1454.7157              1456.6498              1457.3730
 Red. masses --     1.0411                 1.0416                 1.2594
 Frc consts  --     1.2981                 1.3021                 1.5760
 IR Inten    --    13.3132                 7.1239                 4.8068

                    76                     77                     78
                     A                      A                      A
 Frequencies --  1462.7345              1467.4971              1471.3683
 Red. masses --     1.0499                 1.1351                 1.1839
 Frc consts  --     1.3235                 1.4403                 1.5101
 IR Inten    --     7.5863                24.2943                20.4710

                    79                     80                     81
                     A                      A                      A
 Frequencies --  1474.8428              1483.4468              1491.7597
 Red. masses --     1.3525                 1.2555                 1.1357
 Frc consts  --     1.7333                 1.6278                 1.4890
 IR Inten    --     3.2865                 1.3911                 8.3561

                    82                     83                     84
                     A                      A                      A
 Frequencies --  1502.7220              1508.1729              1559.3941
 Red. masses --     4.2910                 2.0351                 6.3470
 Frc consts  --     5.7091                 2.7274                 9.0935
 IR Inten    --    25.7589                34.9497                33.0374

                    85                     86                     87
                     A                      A                      A
 Frequencies --  1575.4631              1582.9083              2286.5148
 Red. masses --     7.4070                 7.5053                13.9566
 Frc consts  --    10.8320                11.0798                42.9911
 IR Inten    --    33.4986                61.3919               528.1682

                    88                     89                     90
                     A                      A                      A
 Frequencies --  3024.3181              3028.6077              3042.5478
 Red. masses --     1.0691                 1.0404                 1.0367
 Frc consts  --     5.7615                 5.6226                 5.6542
 IR Inten    --    34.8942                24.2524                18.0473

                    91                     92                     93
                     A                      A                      A
 Frequencies --  3043.2477              3045.1691              3063.1520
 Red. masses --     1.0384                 1.0379                 1.0593
 Frc consts  --     5.6660                 5.6708                 5.8560
 IR Inten    --     1.2778                 1.2513                 4.3380

                    94                     95                     96
                     A                      A                      A
 Frequencies --  3083.8547              3084.4097              3103.3418
 Red. masses --     1.0997                 1.0612                 1.1008
 Frc consts  --     6.1617                 5.9484                 6.2460
 IR Inten    --     8.0279                13.7258                 7.8471

                    97                     98                     99
                     A                      A                      A
 Frequencies --  3106.1976              3106.7080              3111.8430
 Red. masses --     1.1010                 1.0996                 1.1010
 Frc consts  --     6.2588                 6.2530                 6.2815
 IR Inten    --     0.8507                 2.2609                 0.6631

                   100                    101                    102
                     A                      A                      A
 Frequencies --  3123.7438              3133.8301              3140.1005
 Red. masses --     1.0999                 1.1020                 1.0976
 Frc consts  --     6.3237                 6.3763                 6.3765
 IR Inten    --     8.0041                 7.9785                 5.0395

                   103                    104                    105
                     A                      A                      A
 Frequencies --  3144.1141              3145.7624              3157.6315
 Red. masses --     1.1036                 1.1047                 1.1009
 Frc consts  --     6.4277                 6.4408                 6.4671
 IR Inten    --     4.2539                 0.5520                 0.0928

 - Thermochemistry -
 -------------------
 Temperature   298.150 Kelvin.  Pressure   1.00000 Atm.
 Atom     1 has atomic number  6 and mass  12.00000

 Molecular mass:   258.15929 amu.
 Principal axes and moments of inertia in atomic units:
                           1         2         3
     Eigenvalues --  2502.16554********************
           X            0.99998  -0.00546  -0.00090
           Y            0.00547   0.99988   0.01449
           Z            0.00082  -0.01450   0.99989
 This molecule is an asymmetric top.
 Rotational symmetry number  1.
 Warning -- assumption of classical behavior for rotation
           may cause significant error
 Rotational temperatures (Kelvin)      0.03462     0.00711     0.00645
 Rotational constants (GHZ):           0.72127     0.14809     0.13447
 Zero-point vibrational energy     795235.6 (Joules/Mol)
                                  190.06586 (Kcal/Mol)
 Warning -- explicit consideration of  31 degrees of freedom as
           vibrations may cause significant error
 Vibrational temperatures:     23.08    26.24    40.28    76.19    87.18
          (Kelvin)            105.94   129.97   162.12   167.22   183.68
                              188.64   195.36   254.07   272.50   283.93
                              336.18   366.01   383.71   404.63   425.14
                              465.40   508.20   602.88   612.35   729.30
                              758.99   767.54   847.56   857.18   858.77
                              881.45   916.14   941.22   970.63   971.93
                             1031.78  1078.57  1193.47  1238.23  1264.25
                             1417.21  1433.95  1462.90  1474.79  1485.93
                             1493.90  1500.27  1503.03  1506.68  1507.52
                             1515.28  1522.17  1586.15  1662.52  1693.73
                             1771.65  1824.66  1845.57  1863.66  1893.71
                             1910.74  1977.91  1980.87  1993.61  2006.49
                             2012.34  2016.48  2023.76  2033.44  2055.53
                             2063.19  2087.85  2093.01  2095.79  2096.83
                             2104.55  2111.40  2116.97  2121.97  2134.35
                             2146.31  2162.08  2169.92  2243.62  2266.74
                             2277.45  3289.78  4351.31  4357.49  4377.54
                             4378.55  4381.31  4407.19  4436.97  4437.77
                             4465.01  4469.12  4469.85  4477.24  4494.37
                             4508.88  4517.90  4523.67  4526.04  4543.12

 Zero-point correction=                           0.302889 (Hartree/Particle)
 Thermal correction to Energy=                    0.323285
 Thermal correction to Enthalpy=                  0.324229
 Thermal correction to Gibbs Free Energy=         0.249617
 Sum of electronic and zero-point Energies=           -834.130447
 Sum of electronic and thermal Energies=              -834.110051
 Sum of electronic and thermal Enthalpies=            -834.109107
 Sum of electronic and thermal Free Energies=         -834.183719

                     E (Thermal)             CV                S
                      KCal/Mol        Cal/Mol-Kelvin    Cal/Mol-Kelvin
 Total                  202.864             72.315            157.035
 Electronic               0.000              0.000              1.377
 Translational            0.889              2.981             42.545
 Rotational               0.889              2.981             34.369
 Vibrational            201.087             66.354             78.743
 Vibration     1          0.593              1.986              7.072
 Vibration     2          0.593              1.986              6.818
 Vibration     3          0.593              1.984              5.967
 Vibration     4          0.596              1.976              4.704
 Vibration     5          0.597              1.973              4.438
 Vibration     6          0.599              1.966              4.054
 Vibration     7          0.602              1.956              3.653
 Vibration     8          0.607              1.939              3.222
 Vibration     9          0.608              1.936              3.162
 Vibration    10          0.611              1.926              2.981
 Vibration    11          0.612              1.922              2.930
 Vibration    12          0.614              1.918              2.862
 Vibration    13          0.628              1.871              2.364
 Vibration    14          0.633              1.854              2.234
 Vibration    15          0.637              1.844              2.158
 Vibration    16          0.654              1.789              1.851
 Vibration    17          0.665              1.755              1.700
 Vibration    18          0.672              1.734              1.618
 Vibration    19          0.681              1.708              1.526
 Vibration    20          0.690              1.682              1.442
 Vibration    21          0.708              1.628              1.293
 Vibration    22          0.729              1.569              1.152
 Vibration    23          0.782              1.429              0.895
 Vibration    24          0.787              1.415              0.873
 Vibration    25          0.862              1.235              0.641
 Vibration    26          0.882              1.189              0.593
 Vibration    27          0.888              1.176              0.580
 Vibration    28          0.946              1.055              0.469
 Vibration    29          0.954              1.041              0.457
 Vibration    30          0.955              1.038              0.455
 Vibration    31          0.972              1.005              0.428

 Optimization completed.
    -- Stationary point found.
 Normal termination of Gaussian 09 at Tue Feb 15 11:29:55 2005.
