 Gaussian 09, Revision B.01,
 Gaussian 09:  EM64L-G09RevB.01 12-Aug-2010

 -------------------------------------------------
 #p Temperature=298.15 opt freq UB3LYP/aug-cc-pVDZ
 -------------------------------------------------

 -----------------------------------
 C13H18N6-UB3LYP-aug-cc-pVDZ-Doublet
 -----------------------------------
 Symbolic Z-matrix:
 Charge =  0 Multiplicity = 3

 SCF Done:  E(UB3LYP) =  -833.620307452     A.U. after   30 cycles
 SCF Done:  E(UB3LYP) =  -833.909949288     A.U. after   30 cycles
 SCF Done:  E(UB3LYP) =  -834.236181393     A.U. after   25 cycles
 SCF Done:  E(UB3LYP) =  -834.387764573     A.U. after   27 cycles
 SCF Done:  E(UB3LYP) =  -834.502688420     A.U. after   19 cycles
 SCF Done:  E(UB3LYP) =  -834.584288066     A.U. after   18 cycles
 SCF Done:  E(UB3LYP) =  -834.627178273     A.U. after   18 cycles
 SCF Done:  E(UB3LYP) =  -834.649057406     A.U. after   26 cycles
 SCF Done:  E(UB3LYP) =  -834.654865153     A.U. after   28 cycles
 SCF Done:  E(UB3LYP) =  -834.657275376     A.U. after   27 cycles
 SCF Done:  E(UB3LYP) =  -834.662466440     A.U. after   28 cycles
 SCF Done:  E(UB3LYP) =  -834.662647082     A.U. after   28 cycles
 SCF Done:  E(UB3LYP) =  -834.662681115     A.U. after   16 cycles
 SCF Done:  E(UB3LYP) =  -834.662685292     A.U. after   16 cycles
 SCF Done:  E(UB3LYP) =  -834.662692173     A.U. after   16 cycles
 SCF Done:  E(UB3LYP) =  -834.662693949     A.U. after   13 cycles
 SCF Done:  E(UB3LYP) =  -834.662694608     A.U. after   13 cycles
 SCF Done:  E(UB3LYP) =  -834.662694854     A.U. after   13 cycles
 SCF Done:  E(UB3LYP) =  -834.662694979     A.U. after   12 cycles
 Optimization completed.
    -- Stationary point found.
 Normal termination of Gaussian 09 at Sat Feb 26 11:12:42 2005.

 ----------------------------------------------------------------------
 #P Geom=AllCheck Guess=TCheck SCRF=Check GenChk UB3LYP/Aug-CC-pVDZ Fre
 q
 ----------------------------------------------------------------------

 C13H18N6-UB3LYP-aug-cc-pVDZ-Doublet
 -----------------------------------
 Redundant internal coordinates taken from checkpoint file:
 C13H18N6-UB3LYP-aug-cc-pVDZ-Doublet.chk
 Charge =  0 Multiplicity = 3

                         Standard orientation:
 ---------------------------------------------------------------------
 Center     Atomic      Atomic             Coordinates (Angstroms)
 Number     Number       Type             X           Y           Z
 ---------------------------------------------------------------------
      1          6           0        4.713811    0.363541   -0.945003
      2          6           0        4.508791   -1.001258   -0.666668
      3          7           0        3.075693    0.172741    0.459371
      4          6           0        3.798599    1.110245   -0.228374
      5          7           0        3.486003   -1.098565    0.196561
      6          6           0        3.573358    2.585080   -0.137043
      7          1           0        3.718798    2.958058    0.887795
      8          1           0        4.290239    3.098997   -0.786489
      9          1           0        2.560842    2.869730   -0.458726
     10          6           0        5.226832   -2.214550   -1.165395
     11          1           0        5.156812   -2.293223   -2.259417
     12          1           0        6.293816   -2.177641   -0.904475
     13          1           0        4.788067   -3.114869   -0.720088
     14          6           0        1.907962    0.365172    1.302558
     15          1           0        1.986084    1.353694    1.773816
     16          1           0        1.966061   -0.391814    2.095510
     17          6           0        0.590520    0.237465    0.527532
     18          1           0        0.522757    1.025610   -0.233926
     19          1           0        0.578766   -0.728989    0.006240
     20          6           0       -0.619879    0.345845    1.462219
     21          1           0       -0.600822    1.292998    2.015460
     22          1           0       -0.624200   -0.473333    2.191931
     23          7           0       -1.884476    0.313109    0.740966
     24          6           0       -2.670439   -0.758720    0.476887
     25          6           0       -3.714191   -0.250301   -0.307768
     26          6           0       -3.458231    1.138973   -0.466520
     27          7           0       -2.340456    1.469006    0.174294
     28          6           0       -2.397301   -2.141075    0.973117
     29          1           0       -1.394309   -2.484952    0.683235
     30          1           0       -2.468695   -2.194148    2.069917
     31          1           0       -3.134801   -2.831667    0.553137
     32          6           0       -4.263777    2.155717   -1.210865
     33          1           0       -4.347086    1.891299   -2.273929
     34          1           0       -5.284877    2.220933   -0.810858
     35          1           0       -3.785648    3.137724   -1.125566
     36          7           0       -4.836893   -0.908538   -0.869572
     37          7           0       -5.128177   -2.058497   -0.757565
 ---------------------------------------------------------------------

 SCF Done:  E(UB3LYP) =  -834.662694980     A.U. after   12 cycles

 The electronic state is 3-A.
 Alpha  occ. eigenvalues --  -14.42414 -14.41263 -14.41086 -14.38389 -14.35889
 Alpha  occ. eigenvalues --  -14.35394 -10.25226 -10.25178 -10.24729 -10.23592
 Alpha  occ. eigenvalues --  -10.22926 -10.22823 -10.21984 -10.21240 -10.21078
 Alpha  occ. eigenvalues --  -10.20842 -10.20526 -10.19193 -10.18694  -1.07024
 Alpha  occ. eigenvalues --   -1.05737  -1.05618  -0.88179  -0.86494  -0.83361
 Alpha  occ. eigenvalues --   -0.81721  -0.79155  -0.75213  -0.74424  -0.72030
 Alpha  occ. eigenvalues --   -0.71859  -0.69916  -0.65857  -0.62872  -0.58862
 Alpha  occ. eigenvalues --   -0.58142  -0.55952  -0.55252  -0.52206  -0.50653
 Alpha  occ. eigenvalues --   -0.49889  -0.48464  -0.47166  -0.46258  -0.44785
 Alpha  occ. eigenvalues --   -0.44243  -0.43616  -0.43517  -0.43100  -0.42754
 Alpha  occ. eigenvalues --   -0.42060  -0.41971  -0.41687  -0.41384  -0.41051
 Alpha  occ. eigenvalues --   -0.40190  -0.39913  -0.38365  -0.38064  -0.37938
 Alpha  occ. eigenvalues --   -0.37693  -0.36754  -0.32110  -0.30766  -0.26687
 Alpha  occ. eigenvalues --   -0.26407  -0.25985  -0.25165  -0.24858  -0.19773
 Alpha virt. eigenvalues --   -0.05990  -0.02078  -0.01141  -0.00743  -0.00293
 Alpha virt. eigenvalues --   -0.00207   0.00058   0.00599   0.01334   0.01433
 Alpha virt. eigenvalues --    0.02103   0.02425   0.02863   0.03185   0.03277

  Beta  occ. eigenvalues --  -14.42413 -14.41007 -14.40858 -14.36812 -14.35883
  Beta  occ. eigenvalues --  -14.35220 -10.25223 -10.25173 -10.24716 -10.23571
  Beta  occ. eigenvalues --  -10.22855 -10.22604 -10.21946 -10.21223 -10.21081
  Beta  occ. eigenvalues --  -10.20832 -10.19190 -10.18996 -10.18691  -1.06825
  Beta  occ. eigenvalues --   -1.05202  -1.04076  -0.88099  -0.86249  -0.83036
  Beta  occ. eigenvalues --   -0.81200  -0.78626  -0.74889  -0.74067  -0.71817
  Beta  occ. eigenvalues --   -0.71315  -0.69217  -0.65152  -0.62653  -0.58049
  Beta  occ. eigenvalues --   -0.57676  -0.55500  -0.54820  -0.51754  -0.50527
  Beta  occ. eigenvalues --   -0.49860  -0.47808  -0.47020  -0.45230  -0.44102
  Beta  occ. eigenvalues --   -0.43614  -0.43523  -0.42966  -0.42718  -0.42381
  Beta  occ. eigenvalues --   -0.41593  -0.41505  -0.41421  -0.41042  -0.40492
  Beta  occ. eigenvalues --   -0.39711  -0.39175  -0.38217  -0.37862  -0.37483
  Beta  occ. eigenvalues --   -0.36688  -0.35852  -0.30563  -0.30068  -0.26423
  Beta  occ. eigenvalues --   -0.25552  -0.24888  -0.23999
  Beta virt. eigenvalues --   -0.11243  -0.05534  -0.04967  -0.02013  -0.01058
  Beta virt. eigenvalues --   -0.00687  -0.00249  -0.00150   0.00070   0.00610
  Beta virt. eigenvalues --    0.01364   0.01506   0.02161   0.02477   0.02956

 Mulliken atomic charges:
              1
     1  C   -0.846918
     2  C   -0.221854
     3  N    0.374242
     4  C    0.231884
     5  N   -0.669804
     6  C    1.036224
     7  H   -0.155948
     8  H   -0.338293
     9  H   -0.122704
    10  C    1.253422
    11  H   -0.142419
    12  H   -0.140744
    13  H   -0.382549
    14  C    1.465508
    15  H   -0.656043
    16  H   -0.616133
    17  C    0.955664
    18  H   -0.460680
    19  H   -0.443808
    20  C    1.445973
    21  H   -0.611357
    22  H   -0.658213
    23  N    0.365860
    24  C   -0.359347
    25  C    0.865752
    26  C   -1.032618
    27  N   -0.553510
    28  C    1.017710
    29  H   -0.105065
    30  H   -0.126121
    31  H   -0.337588
    32  C    1.295892
    33  H   -0.126013
    34  H   -0.125943
    35  H   -0.411502
    36  N   -0.022700
    37  N   -0.640259
 Sum of Mulliken atomic charges =   0.00000

 Dipole moment (field-independent basis, Debye):
    X=              2.2876    Y=              1.8706    Z=              2.3532  Tot=              3.7775
 Quadrupole moment (field-independent basis, Debye-Ang):
   XX=           -138.4137   YY=           -114.3585   ZZ=           -111.1137
   XY=             -4.2810   XZ=             -4.0458   YZ=             -2.1884

  Exact polarizability: 242.424   2.180 217.818   5.064  -2.408 160.110
 Approx polarizability: 311.714  18.901 341.777   5.075  -4.562 256.585

                     1                      2                      3
                     A                      A                      A
 Frequencies --    11.1894                15.3062                25.0782
 Red. masses --     2.4842                 2.6153                 1.7989
 Frc consts  --     0.0002                 0.0004                 0.0007
 IR Inten    --     0.3763                 0.2878                 0.3037

                     4                      5                      6
                     A                      A                      A
 Frequencies --    32.6808                53.1687                72.3880
 Red. masses --     4.3338                 3.5581                 1.1132
 Frc consts  --     0.0027                 0.0059                 0.0034
 IR Inten    --     0.5549                 0.2645                 0.0227

                     7                      8                      9
                     A                      A                      A
 Frequencies --    74.6788                90.3307               102.7593
 Red. masses --     3.0642                 1.1070                 1.9344
 Frc consts  --     0.0101                 0.0053                 0.0120
 IR Inten    --     1.1507                 0.1351                 0.0590

                    10                     11                     12
                     A                      A                      A
 Frequencies --   114.3917               123.5695               173.1189
 Red. masses --     2.6116                 1.2962                 4.4843
 Frc consts  --     0.0201                 0.0117                 0.0792
 IR Inten    --     1.9218                 0.4707                 0.4340

                    13                     14                     15
                     A                      A                      A
 Frequencies --   178.4201               179.5532               206.5452
 Red. masses --     3.1913                 4.3640                 4.5382
 Frc consts  --     0.0599                 0.0829                 0.1141
 IR Inten    --     7.3615                 1.2504                 2.4512

                    16                     17                     18
                     A                      A                      A
 Frequencies --   212.5880               258.3339               269.0705
 Red. masses --     4.8056                 2.7336                 2.5450
 Frc consts  --     0.1280                 0.1075                 0.1086
 IR Inten    --     3.5691                 5.8101                 2.4118

                    19                     20                     21
                     A                      A                      A
 Frequencies --   273.1786               289.2655               298.6483
 Red. masses --     2.6076                 4.7307                 2.9325
 Frc consts  --     0.1147                 0.2332                 0.1541
 IR Inten    --     2.4524                 1.7197                 0.3028

                    22                     23                     24
                     A                      A                      A
 Frequencies --   315.0919               360.2225               410.2344
 Red. masses --     3.9102                 4.6518                 5.3564
 Frc consts  --     0.2287                 0.3556                 0.5311
 IR Inten    --     3.5540                 0.1010                10.3211

                    25                     26                     27
                     A                      A                      A
 Frequencies --   455.2777               484.8934               542.1856
 Red. masses --     4.0878                 2.9148                 4.3726
 Frc consts  --     0.4992                 0.4038                 0.7573
 IR Inten    --     5.0473                 0.7441                 2.6313

                    28                     29                     30
                     A                      A                      A
 Frequencies --   589.4549               592.0491               599.8507
 Red. masses --     4.3142                 5.1471                 4.0149
 Frc consts  --     0.8832                 1.0630                 0.8512
 IR Inten    --     1.6722                 5.6862                 9.8776

                    31                     32                     33
                     A                      A                      A
 Frequencies --   637.7449               646.9611               671.7486
 Red. masses --     5.4514                 6.7426                 5.9914
 Frc consts  --     1.3063                 1.6628                 1.5929
 IR Inten    --     1.7811                 2.3376                 2.9219

                    34                     35                     36
                     A                      A                      A
 Frequencies --   684.8233               690.6238               721.5689
 Red. masses --     4.8900                 4.8515                 4.7002
 Frc consts  --     1.3512                 1.3634                 1.4418
 IR Inten    --    10.2108                30.1944                 3.8785

                    37                     38                     39
                     A                      A                      A
 Frequencies --   742.4426               825.7271               853.7815
 Red. masses --     1.1683                 3.2941                 1.5206
 Frc consts  --     0.3794                 1.3233                 0.6531
 IR Inten    --     1.2211                 4.9890                 1.3432

                    40                     41                     42
                     A                      A                      A
 Frequencies --   888.5103               984.3476              1003.4431
 Red. masses --     3.0443                 1.5926                 1.7923
 Frc consts  --     1.4160                 0.9092                 1.0633
 IR Inten    --     7.6651                 8.6181                20.1048

                    43                     44                     45
                     A                      A                      A
 Frequencies --  1017.3001              1024.5049              1035.4550
 Red. masses --     2.0183                 3.8546                 2.5763
 Frc consts  --     1.2307                 2.3837                 1.6275
 IR Inten    --    10.6906                 7.6581                 3.3562

                    46                     47                     48
                     A                      A                      A
 Frequencies --  1041.9888              1045.1137              1045.9233
 Red. masses --     2.0070                 1.4546                 1.5525
 Frc consts  --     1.2839                 0.9361                 1.0007
 IR Inten    --    17.7066                 1.6439                 1.8398

                    49                     50                     51
                     A                      A                      A
 Frequencies --  1047.4584              1050.2721              1063.8892
 Red. masses --     1.4733                 1.5166                 4.3926
 Frc consts  --     0.9524                 0.9857                 2.9293
 IR Inten    --     0.2994                 1.0005                 6.8348

                    52                     53                     54
                     A                      A                      A
 Frequencies --  1066.4240              1103.3426              1158.9896
 Red. masses --     2.6714                 2.4067                 3.4020
 Frc consts  --     1.7900                 1.7262                 2.6924
 IR Inten    --     2.2889                 1.3440                 2.9606

                    55                     56                     57
                     A                      A                      A
 Frequencies --  1190.1167              1229.4800              1264.7242
 Red. masses --     3.1032                 2.8038                 3.1604
 Frc consts  --     2.5896                 2.4971                 2.9784
 IR Inten    --     3.0866                 2.5763                 1.4337

                    58                     59                     60
                     A                      A                      A
 Frequencies --  1271.3629              1292.5257              1332.5194
 Red. masses --     1.2895                 1.8125                 1.5463
 Frc consts  --     1.2280                 1.7841                 1.6177
 IR Inten    --     0.2694                 2.1320                 4.2699

                    61                     62                     63
                     A                      A                      A
 Frequencies --  1340.6169              1370.3545              1383.6624
 Red. masses --     1.8411                 3.0332                 1.3517
 Frc consts  --     1.9495                 3.3559                 1.5248
 IR Inten    --    33.1372                16.8862                 2.7103

                    64                     65                     66
                     A                      A                      A
 Frequencies --  1392.2101              1392.8477              1398.1555
 Red. masses --     1.3400                 1.2660                 1.4848
 Frc consts  --     1.5302                 1.4471                 1.7102
 IR Inten    --     1.5525                 2.7417                31.4220

                    67                     68                     69
                     A                      A                      A
 Frequencies --  1399.2047              1400.1253              1427.0758
 Red. masses --     1.2822                 1.2675                 2.2820
 Frc consts  --     1.4790                 1.4640                 2.7382
 IR Inten    --    20.1789                 2.9559                45.0615

                    70                     71                     72
                     A                      A                      A
 Frequencies --  1428.3004              1438.7661              1457.2204
 Red. masses --     2.3148                 1.4282                 1.0420
 Frc consts  --     2.7823                 1.7418                 1.3037
 IR Inten    --    40.3025                83.5572                 7.3903

                    73                     74                     75
                     A                      A                      A
 Frequencies --  1458.3105              1461.2623              1462.5088
 Red. masses --     1.0421                 1.0957                 1.0555
 Frc consts  --     1.3058                 1.3785                 1.3302
 IR Inten    --     6.6473                 2.8794                 2.8038

                    76                     77                     78
                     A                      A                      A
 Frequencies --  1465.5193              1470.7871              1473.7477
 Red. masses --     1.1090                 1.0587                 1.2202
 Frc consts  --     1.4033                 1.3493                 1.5614
 IR Inten    --    17.6139                 4.7550                 9.9881

                    79                     80                     81
                     A                      A                      A
 Frequencies --  1483.4316              1484.2871              1488.6024
 Red. masses --     1.4222                 1.4920                 1.1945
 Frc consts  --     1.8439                 1.9366                 1.5595
 IR Inten    --     7.2378                 0.8287                10.4049

                    82                     83                     84
                     A                      A                      A
 Frequencies --  1501.9794              1503.6354              1528.3095
 Red. masses --     4.3832                 2.9196                 4.9141
 Frc consts  --     5.8260                 3.8892                 6.7627
 IR Inten    --    22.8394                12.8550                55.9212

                    85                     86                     87
                     A                      A                      A
 Frequencies --  1570.3856              1570.9738              1814.3033
 Red. masses --     7.2634                 7.5170                13.8843
 Frc consts  --    10.5537                10.9304                26.9273
 IR Inten    --    24.5580                51.0347                48.9576

                    88                     89                     90
                     A                      A                      A
 Frequencies --  3026.6045              3027.6619              3036.7599
 Red. masses --     1.0396                 1.0407                 1.0369
 Frc consts  --     5.6108                 5.6207                 5.6341
 IR Inten    --    25.7867                17.6082                32.5471

                    91                     92                     93
                     A                      A                      A
 Frequencies --  3042.4066              3052.4903              3059.0153
 Red. masses --     1.0367                 1.0589                 1.0585
 Frc consts  --     5.6537                 5.8129                 5.8361
 IR Inten    --    19.9178                 5.6514                 8.9048

                    94                     95                     96
                     A                      A                      A
 Frequencies --  3070.0378              3080.1934              3084.9735
 Red. masses --     1.0587                 1.1007                 1.0996
 Frc consts  --     5.8792                 6.1526                 6.1659
 IR Inten    --    45.9141                14.1183                 9.6617

                    97                     98                     99
                     A                      A                      A
 Frequencies --  3092.9342              3094.0557              3101.1474
 Red. masses --     1.1041                 1.1008                 1.1004
 Frc consts  --     6.2231                 6.2089                 6.2349
 IR Inten    --     0.3181                13.5381                10.0138

                   100                    101                    102
                     A                      A                      A
 Frequencies --  3109.0949              3124.6779              3130.7133
 Red. masses --     1.1066                 1.1075                 1.1012
 Frc consts  --     6.3024                 6.3707                 6.3592
 IR Inten    --     1.6887                20.2902                 8.7080

                   103                    104                    105
                     A                      A                      A
 Frequencies --  3133.9632              3137.0583              3146.0852
 Red. masses --     1.0980                 1.1020                 1.0981
 Frc consts  --     6.3541                 6.3896                 6.4036
 IR Inten    --     9.3479                 8.4221                 0.5745

 - Thermochemistry -
 -------------------
 Temperature   298.150 Kelvin.  Pressure   1.00000 Atm.
 Atom     1 has atomic number  6 and mass  12.00000

 Molecular mass:   258.15929 amu.
 Principal axes and moments of inertia in atomic units:
                           1         2         3
     Eigenvalues --  2498.76936********************
           X            0.99997  -0.00777  -0.00194
           Y            0.00773   0.99980  -0.01866
           Z            0.00209   0.01865   0.99982
 This molecule is an asymmetric top.
 Rotational symmetry number  1.
 Warning -- assumption of classical behavior for rotation
           may cause significant error
 Rotational temperatures (Kelvin)      0.03466     0.00708     0.00646
 Rotational constants (GHZ):           0.72225     0.14749     0.13454
 Zero-point vibrational energy     790451.0 (Joules/Mol)
                                  188.92233 (Kcal/Mol)
 Warning -- explicit consideration of  30 degrees of freedom as
           vibrations may cause significant error
 Vibrational temperatures:     16.10    22.02    36.08    47.02    76.50
          (Kelvin)            104.15   107.45   129.97   147.85   164.58
                              177.79   249.08   256.71   258.34   297.17
                              305.87   371.68   387.13   393.04   416.19
                              429.69   453.35   518.28   590.24   655.04
                              697.65   780.08   848.09   851.83   863.05
                              917.57   930.83   966.50   985.31   993.65
                             1038.18  1068.21  1188.04  1228.40  1278.37
                             1416.25  1443.73  1463.67  1474.03  1489.79
                             1499.19  1503.68  1504.85  1507.06  1511.11
                             1530.70  1534.34  1587.46  1667.53  1712.31
                             1768.95  1819.65  1829.21  1859.65  1917.20
                             1928.85  1971.63  1990.78  2003.08  2003.99
                             2011.63  2013.14  2014.47  2053.24  2055.00
                             2070.06  2096.61  2098.18  2102.43  2104.22
                             2108.55  2116.13  2120.39  2134.32  2135.56
                             2141.76  2161.01  2163.39  2198.89  2259.43
                             2260.28  2610.37  4354.60  4356.12  4369.21
                             4377.34  4391.85  4401.24  4417.09  4431.71
                             4438.58  4450.04  4451.65  4461.85  4473.29
                             4495.71  4504.39  4509.07  4513.52  4526.51

 Zero-point correction=                           0.301067 (Hartree/Particle)
 Thermal correction to Energy=                    0.321832
 Thermal correction to Enthalpy=                  0.322776
 Thermal correction to Gibbs Free Energy=         0.245715
 Sum of electronic and zero-point Energies=           -834.361628
 Sum of electronic and thermal Energies=              -834.340863
 Sum of electronic and thermal Enthalpies=            -834.339919
 Sum of electronic and thermal Free Energies=         -834.416980

                     E (Thermal)             CV                S
                      KCal/Mol        Cal/Mol-Kelvin    Cal/Mol-Kelvin
 Total                  201.953             72.674            162.189
 Electronic               0.000              0.000              2.183
 Translational            0.889              2.981             42.545
 Rotational               0.889              2.981             34.372
 Vibrational            200.175             66.712             83.089
 Vibration     1          0.593              1.987              7.788
 Vibration     2          0.593              1.986              7.165
 Vibration     3          0.593              1.985              6.185
 Vibration     4          0.594              1.983              5.660
 Vibration     5          0.596              1.976              4.696
 Vibration     6          0.598              1.967              4.087
 Vibration     7          0.599              1.966              4.026
 Vibration     8          0.602              1.956              3.653
 Vibration     9          0.605              1.947              3.401
 Vibration    10          0.607              1.938              3.193
 Vibration    11          0.610              1.929              3.044
 Vibration    12          0.627              1.876              2.401
 Vibration    13          0.629              1.869              2.345
 Vibration    14          0.629              1.867              2.333
 Vibration    15          0.641              1.831              2.074
 Vibration    16          0.644              1.822              2.021
 Vibration    17          0.667              1.749              1.673
 Vibration    18          0.673              1.730              1.602
 Vibration    19          0.676              1.723              1.576
 Vibration    20          0.686              1.694              1.478
 Vibration    21          0.692              1.676              1.424
 Vibration    22          0.702              1.645              1.335
 Vibration    23          0.735              1.554              1.121
 Vibration    24          0.774              1.448              0.926
 Vibration    25          0.814              1.349              0.780
 Vibration    26          0.841              1.284              0.697
 Vibration    27          0.897              1.157              0.561
 Vibration    28          0.947              1.054              0.468
 Vibration    29          0.950              1.049              0.464
 Vibration    30          0.958              1.032              0.450

 Normal termination of Gaussian 09 at Sat Feb 26 18:44:19 2005.
