 Gaussian 09, Revision B.01,
 Gaussian 09:  EM64L-G09RevB.01 12-Aug-2010

 -------------------------------------------------
 #p Temperature=298.15 opt freq UB3LYP/aug-cc-pVDZ
 -------------------------------------------------

 -----------------------------------
 C2H5-N2+-UB3LYP-aug-cc-pVDZ-Triplet
 -----------------------------------
 Symbolic Z-matrix:
 Charge =  1 Multiplicity = 3

 SCF Done:  E(UB3LYP) =  -188.187806694     A.U. after   27 cycles
 SCF Done:  E(UB3LYP) =  -188.207353533     A.U. after   22 cycles
 SCF Done:  E(UB3LYP) =  -188.228943281     A.U. after   20 cycles
 SCF Done:  E(UB3LYP) =  -188.174189267     A.U. after   21 cycles
 SCF Done:  E(UB3LYP) =  -188.186385256     A.U. after   13 cycles
 SCF Done:  E(UB3LYP) =  -188.197217112     A.U. after   14 cycles
 SCF Done:  E(UB3LYP) =  -188.206404872     A.U. after   14 cycles
 SCF Done:  E(UB3LYP) =  -188.214718115     A.U. after   14 cycles
 SCF Done:  E(UB3LYP) =  -188.230724026     A.U. after   22 cycles
 SCF Done:  E(UB3LYP) =  -188.256027402     A.U. after   19 cycles
 SCF Done:  E(UB3LYP) =  -188.262767626     A.U. after   15 cycles
 SCF Done:  E(UB3LYP) =  -188.262812399     A.U. after   14 cycles
 SCF Done:  E(UB3LYP) =  -188.262860875     A.U. after   15 cycles
 SCF Done:  E(UB3LYP) =  -188.262872485     A.U. after   14 cycles
 SCF Done:  E(UB3LYP) =  -188.262879063     A.U. after   13 cycles
 SCF Done:  E(UB3LYP) =  -188.262883805     A.U. after   13 cycles
 SCF Done:  E(UB3LYP) =  -188.262892406     A.U. after   13 cycles
 SCF Done:  E(UB3LYP) =  -188.262898105     A.U. after   14 cycles
 SCF Done:  E(UB3LYP) =  -188.262898703     A.U. after   12 cycles
 Optimization completed.
    -- Stationary point found.
 Normal termination of Gaussian 09 at Thu Jan 20 22:32:21 2005.

 ----------------------------------------------------------------------
 #P Geom=AllCheck Guess=TCheck SCRF=Check GenChk UB3LYP/Aug-CC-pVDZ Fre
 q
 ----------------------------------------------------------------------

 C2H5-N2+-UB3LYP-aug-cc-pVDZ-Triplet
 -----------------------------------
 Redundant internal coordinates taken from checkpoint file:
 C2H5-N2+-UB3LYP-aug-cc-pVDZ-Triplet.chk
 Charge =  1 Multiplicity = 3

                         Standard orientation:
 ---------------------------------------------------------------------
 Center     Atomic      Atomic             Coordinates (Angstroms)
 Number     Number       Type             X           Y           Z
 ---------------------------------------------------------------------
      1          6           0       -0.379397    0.535323    0.018265
      2          1           0       -0.169326    0.837277    1.138896
      3          1           0       -0.463102    1.570530   -0.384978
      4          7           0        0.822363   -0.057718   -0.439436
      5          7           0        1.791075   -0.239970    0.261924
      6          6           0       -1.601388   -0.322513    0.062805
      7          1           0       -1.419387   -1.359813    0.379363
      8          1           0       -2.409130    0.151865    0.631542
      9          1           0       -1.948411   -0.392899   -1.008655
 ---------------------------------------------------------------------

 SCF Done:  E(UB3LYP) =  -188.262898703     A.U. after    1 cycles

 The electronic state is 3-A.
 Alpha  occ. eigenvalues --  -14.69859 -14.67809 -10.53536 -10.44843  -1.34024
 Alpha  occ. eigenvalues --   -1.09434  -0.95402  -0.85503  -0.76897  -0.72319
 Alpha  occ. eigenvalues --   -0.71473  -0.66754  -0.64328  -0.63513  -0.60764
 Alpha  occ. eigenvalues --   -0.48123
 Alpha virt. eigenvalues --   -0.30927  -0.18448  -0.16033  -0.14843  -0.12596
 Alpha virt. eigenvalues --   -0.12022  -0.09848  -0.08973  -0.08376  -0.07943
 Alpha virt. eigenvalues --   -0.06837  -0.05945  -0.03874  -0.03556  -0.02491

  Beta  occ. eigenvalues --  -14.68946 -14.65861 -10.52987 -10.44694  -1.30789
  Beta  occ. eigenvalues --   -1.07027  -0.93583  -0.81918  -0.73074  -0.69870
  Beta  occ. eigenvalues --   -0.67491  -0.63624  -0.62140  -0.61239
  Beta virt. eigenvalues --   -0.50061  -0.30919  -0.28963  -0.17412  -0.14768
  Beta virt. eigenvalues --   -0.14517  -0.12200  -0.11641  -0.09444  -0.08503
  Beta virt. eigenvalues --   -0.08139  -0.07142  -0.06402  -0.05505  -0.03551

 Mulliken atomic charges:
              1
     1  C    0.674685
     2  H    0.089153
     3  H   -0.183263
     4  N    0.136057
     5  N   -0.220558
     6  C    0.723285
     7  H   -0.136062
     8  H   -0.125793
     9  H    0.042497
 Sum of Mulliken atomic charges =   1.00000

 Dipole moment (field-independent basis, Debye):
    X=             -3.1483    Y=              1.4287    Z=              0.3351  Tot=              3.4735
 Quadrupole moment (field-independent basis, Debye-Ang):
   XX=            -15.0187   YY=            -18.3750   ZZ=            -20.4208
   XY=              0.5344   XZ=             -0.2698   YZ=              0.5461

  Exact polarizability:  77.980  -0.374  34.346   0.712   1.602  32.450
 Approx polarizability: 132.137  -4.775  50.726   4.933   2.966  52.532

                     1                      2                      3
                     A                      A                      A
 Frequencies --   138.7439               151.2345               257.2525
 Red. masses --     2.0741                 1.3660                 1.5558
 Frc consts  --     0.0235                 0.0184                 0.0607
 IR Inten    --     6.0445                14.6242                78.3127

                     4                      5                      6
                     A                      A                      A
 Frequencies --   387.5313               475.1483               704.1342
 Red. masses --     2.9161                 3.2866                 1.2936
 Frc consts  --     0.2580                 0.4372                 0.3779
 IR Inten    --     2.9288                13.4472               134.1131

                     7                      8                      9
                     A                      A                      A
 Frequencies --   824.9624               880.0947               982.7352
 Red. masses --     1.1829                 2.0816                 2.3979
 Frc consts  --     0.4743                 0.9500                 1.3644
 IR Inten    --   146.7369                34.7157               281.3874

                    10                     11                     12
                     A                      A                      A
 Frequencies --  1058.1396              1098.4648              1157.4542
 Red. masses --     1.9370                 1.3527                 1.1033
 Frc consts  --     1.2778                 0.9617                 0.8709
 IR Inten    --    10.1696                92.4799                54.6554

                    13                     14                     15
                     A                      A                      A
 Frequencies --  1233.8619              1298.0148              1436.0521
 Red. masses --     1.1247                 1.5220                 1.1358
 Frc consts  --     1.0088                 1.5109                 1.3801
 IR Inten    --   125.1814                 8.0806                10.0423

                    16                     17                     18
                     A                      A                      A
 Frequencies --  1738.9643              2234.9854              2747.9208
 Red. masses --     9.6659                 1.0717                 1.0634
 Frc consts  --    17.2217                 3.1542                 4.7312
 IR Inten    --   288.1886               206.2993               600.4581

                    19                     20                     21
                     A                      A                      A
 Frequencies --  2918.0246              3061.8061              3152.4913
 Red. masses --     1.0696                 1.0611                 1.1030
 Frc consts  --     5.3661                 5.8610                 6.4583
 IR Inten    --    89.0910                19.8587                 8.3535

 - Thermochemistry -
 -------------------
 Temperature   298.150 Kelvin.  Pressure   1.00000 Atm.
 Atom     1 has atomic number  6 and mass  12.00000

 Molecular mass:    57.04527 amu.
 Principal axes and moments of inertia in atomic units:
                           1         2         3
     Eigenvalues --    62.41167 374.46602 388.97074
           X            0.99988   0.01571  -0.00088
           Y           -0.01558   0.99654   0.08163
           Z            0.00216  -0.08161   0.99666
 This molecule is an asymmetric top.
 Rotational symmetry number  1.
 Rotational temperatures (Kelvin)      1.38778     0.23130     0.22267
 Rotational constants (GHZ):          28.91673     4.81951     4.63979
 Zero-point vibrational energy     167106.4 (Joules/Mol)
                                   39.93940 (Kcal/Mol)
 Warning -- explicit consideration of   5 degrees of freedom as
           vibrations may cause significant error
 Vibrational temperatures:    199.62   217.59   370.13   557.57   683.63
          (Kelvin)           1013.09  1186.94  1266.26  1413.93  1522.42
                             1580.44  1665.32  1775.25  1867.55  2066.16
                             2501.98  3215.64  3953.64  4198.38  4405.25
                             4535.73

 Zero-point correction=                           0.063647 (Hartree/Particle)
 Thermal correction to Energy=                    0.069214
 Thermal correction to Enthalpy=                  0.070159
 Thermal correction to Gibbs Free Energy=         0.035069
 Sum of electronic and zero-point Energies=           -188.199251
 Sum of electronic and thermal Energies=              -188.193684
 Sum of electronic and thermal Enthalpies=            -188.192740
 Sum of electronic and thermal Free Energies=         -188.227830

                     E (Thermal)             CV                S
                      KCal/Mol        Cal/Mol-Kelvin    Cal/Mol-Kelvin
 Total                   43.433             17.984             73.852
 Electronic               0.000              0.000              2.183
 Translational            0.889              2.981             38.045
 Rotational               0.889              2.981             23.723
 Vibrational             41.655             12.022              9.901
 Vibration     1          0.614              1.915              2.821
 Vibration     2          0.619              1.901              2.657
 Vibration     3          0.667              1.751              1.680
 Vibration     4          0.756              1.497              1.010
 Vibration     5          0.832              1.305              0.723

 Normal termination of Gaussian 09 at Thu Jan 20 22:33:29 2005.
