 Gaussian 09, Revision B.01,
 Gaussian 09:  EM64L-G09RevB.01 12-Aug-2010

 -------------------------------------------------
 #p Temperature=298.15 opt freq UB3LYP/aug-cc-pVDZ
 -------------------------------------------------

 ------------------------------
 C2H5-UB3LYP-aug-cc-pVDZ-Duplet
 ------------------------------
 Symbolic Z-matrix:
 Charge =  0 Multiplicity = 2

 SCF Done:  E(UB3LYP) =  -79.1506173994     A.U. after   12 cycles
 SCF Done:  E(UB3LYP) =  -79.1631554378     A.U. after   12 cycles
 SCF Done:  E(UB3LYP) =  -79.1662855432     A.U. after   11 cycles
 SCF Done:  E(UB3LYP) =  -79.1667175101     A.U. after   11 cycles
 SCF Done:  E(UB3LYP) =  -79.1667590375     A.U. after    9 cycles
 SCF Done:  E(UB3LYP) =  -79.1667683930     A.U. after    9 cycles
 Optimization completed.
    -- Stationary point found.
 Normal termination of Gaussian 09 at Tue Mar  6 06:45:53 2018.

 ----------------------------------------------------------------------
 #P Geom=AllCheck Guess=TCheck SCRF=Check GenChk UB3LYP/Aug-CC-pVDZ Fre
 q
 ----------------------------------------------------------------------

 C2H5-UB3LYP-aug-cc-pVDZ-Duplet
 ------------------------------
 Redundant internal coordinates taken from checkpoint file:
 C2H5-UB3LYP-aug-cc-pVDZ-Duplet.chk
 Charge =  0 Multiplicity = 2

                         Standard orientation:
 ---------------------------------------------------------------------
 Center     Atomic      Atomic             Coordinates (Angstroms)
 Number     Number       Type             X           Y           Z
 ---------------------------------------------------------------------
      1          6           0        0.795109    0.000000   -0.015796
      2          1           0        1.356322   -0.932271    0.035968
      3          1           0        1.356341    0.932260    0.035969
      4          6           0       -0.694575    0.000004   -0.002306
      5          1           0       -1.108144   -0.891747   -0.496683
      6          1           0       -1.099581   -0.000222    1.029664
      7          1           0       -1.108141    0.891958   -0.496309
 ---------------------------------------------------------------------

 SCF Done:  E(UB3LYP) =  -79.1667683930     A.U. after    1 cycles

 The electronic state is 2-A.
 Alpha  occ. eigenvalues --  -10.19452 -10.18701  -0.76011  -0.61138  -0.45330
 Alpha  occ. eigenvalues --   -0.41585  -0.39597  -0.36044  -0.20674
 Alpha virt. eigenvalues --   -0.00621   0.01222   0.01969   0.02615   0.04943
 Alpha virt. eigenvalues --    0.07263   0.08613   0.09160   0.10194   0.10884
 Alpha virt. eigenvalues --    0.11202   0.12340   0.14359   0.15569   0.16311

  Beta  occ. eigenvalues --  -10.18787 -10.18073  -0.74347  -0.58747  -0.44697
  Beta  occ. eigenvalues --   -0.40087  -0.38786  -0.35590
  Beta virt. eigenvalues --   -0.06055  -0.00555   0.01347   0.01951   0.02719
  Beta virt. eigenvalues --    0.04894   0.07224   0.09166   0.10021   0.10195
  Beta virt. eigenvalues --    0.11111   0.11501   0.12443   0.14718   0.16026

 Mulliken atomic charges:
              1
     1  C    0.817364
     2  H   -0.444072
     3  H   -0.444062
     4  C    0.812504
     5  H   -0.265601
     6  H   -0.210482
     7  H   -0.265650
 Sum of Mulliken atomic charges =   0.00000

 Dipole moment (field-independent basis, Debye):
    X=             -0.3014    Y=              0.0000    Z=              0.1115  Tot=              0.3214
 Quadrupole moment (field-independent basis, Debye-Ang):
   XX=            -14.7234   YY=            -13.8516   ZZ=            -15.5469
   XY=              0.0000   XZ=              0.1514   YZ=              0.0000

  Exact polarizability:  32.920   0.000  27.124  -0.557   0.003  26.774
 Approx polarizability:  39.038   0.000  35.620  -0.778   0.000  34.408

                     1                      2                      3
                     A                      A                      A
 Frequencies --    88.6130               502.6531               804.5693
 Red. masses --     1.0081                 1.2115                 1.0506
 Frc consts  --     0.0047                 0.1804                 0.4007
 IR Inten    --     0.0036                55.7219                 1.5644

                     4                      5                      6
                     A                      A                      A
 Frequencies --   958.2157              1068.1428              1178.6761
 Red. masses --     1.3341                 3.1974                 1.4797
 Frc consts  --     0.7217                 2.1493                 1.2112
 IR Inten    --     0.6534                 0.0573                 2.2032

                     7                      8                      9
                     A                      A                      A
 Frequencies --  1369.3023              1438.5079              1447.7806
 Red. masses --     1.1957                 1.0598                 1.0324
 Frc consts  --     1.3210                 1.2921                 1.2750
 IR Inten    --     1.6500                 4.8425                 5.2699

                    10                     11                     12
                     A                      A                      A
 Frequencies --  1463.5675              2950.5817              3043.9701
 Red. masses --     1.1870                 1.0601                 1.0696
 Frc consts  --     1.4981                 5.4377                 5.8390
 IR Inten    --     0.5636                27.6347                22.6239

                    13                     14                     15
                     A                      A                      A
 Frequencies --  3091.5943              3149.8268              3256.5888
 Red. masses --     1.1021                 1.0512                 1.1186
 Frc consts  --     6.2061                 6.1449                 6.9899
 IR Inten    --    21.2376                14.8226                14.0535

 - Thermochemistry -
 -------------------
 Temperature   298.150 Kelvin.  Pressure   1.00000 Atm.
 Atom     1 has atomic number  6 and mass  12.00000

 Molecular mass:    29.03913 amu.
 Principal axes and moments of inertia in atomic units:
                           1         2         3
     Eigenvalues --    17.58938  79.76215  86.13525
           X            0.99999   0.00000   0.00328
           Y            0.00000   1.00000   0.00000
           Z           -0.00328   0.00000   0.99999
 This molecule is an asymmetric top.
 Rotational symmetry number  1.
 Rotational temperatures (Kelvin)      4.92421     1.08590     1.00556
 Rotational constants (GHZ):         102.60404    22.62654    20.95241
 Zero-point vibrational energy     154393.6 (Joules/Mol)
                                   36.90095 (Kcal/Mol)
 Warning -- explicit consideration of   2 degrees of freedom as
           vibrations may cause significant error
 Vibrational temperatures:    127.49   723.20  1157.59  1378.66  1536.82
          (Kelvin)           1695.85  1970.12  2069.69  2083.03  2105.74
                             4245.22  4379.59  4448.11  4531.89  4685.50

 Zero-point correction=                           0.058805 (Hartree/Particle)
 Thermal correction to Energy=                    0.062810
 Thermal correction to Enthalpy=                  0.063754
 Thermal correction to Gibbs Free Energy=         0.034450
 Sum of electronic and zero-point Energies=            -79.107963
 Sum of electronic and thermal Energies=               -79.103958
 Sum of electronic and thermal Enthalpies=             -79.103014
 Sum of electronic and thermal Free Energies=          -79.132318

                     E (Thermal)             CV                S
                      KCal/Mol        Cal/Mol-Kelvin    Cal/Mol-Kelvin
 Total                   39.414             11.145             61.677
 Electronic               0.000              0.000              1.377
 Translational            0.889              2.981             36.032
 Rotational               0.889              2.981             19.430
 Vibrational             37.637              5.183              4.837
 Vibration     1          0.601              1.957              3.690
 Vibration     2          0.858              1.244              0.652

 Optimization completed.
    -- Stationary point found.
 Normal termination of Gaussian 09 at Tue Mar  6 06:46:14 2018.
