 Gaussian 09, Revision B.01,
 Gaussian 09:  EM64L-G09RevB.01 12-Aug-2010

 -------------------------------------------------
 #p Temperature=298.15 opt freq UB3LYP/aug-cc-pVDZ
 -------------------------------------------------

 --------------------------------
 C2H5+-UB3LYP-aug-cc-pVDZ-Singlet
 --------------------------------
 Symbolic Z-matrix:
 Charge =  1 Multiplicity = 1

 SCF Done:  E(UB3LYP) =  -78.7985711880     A.U. after   11 cycles
 SCF Done:  E(UB3LYP) =  -78.8368217648     A.U. after    9 cycles
 SCF Done:  E(UB3LYP) =  -78.8598013018     A.U. after   10 cycles
 SCF Done:  E(UB3LYP) =  -78.8614535051     A.U. after    9 cycles
 SCF Done:  E(UB3LYP) =  -78.8626679250     A.U. after    9 cycles
 SCF Done:  E(UB3LYP) =  -78.8633137298     A.U. after   11 cycles
 SCF Done:  E(UB3LYP) =  -78.8652269120     A.U. after   11 cycles
 SCF Done:  E(UB3LYP) =  -78.8649748052     A.U. after   10 cycles
 SCF Done:  E(UB3LYP) =  -78.8656120724     A.U. after    9 cycles
 SCF Done:  E(UB3LYP) =  -78.8657975636     A.U. after   10 cycles
 SCF Done:  E(UB3LYP) =  -78.8659580235     A.U. after   10 cycles
 SCF Done:  E(UB3LYP) =  -78.8664831586     A.U. after   10 cycles
 SCF Done:  E(UB3LYP) =  -78.8665680304     A.U. after   10 cycles
 SCF Done:  E(UB3LYP) =  -78.8665923445     A.U. after   11 cycles
 SCF Done:  E(UB3LYP) =  -78.8665997443     A.U. after    8 cycles
 SCF Done:  E(UB3LYP) =  -78.8666013722     A.U. after    8 cycles
 Optimization completed.
    -- Stationary point found.
 Normal termination of Gaussian 09 at Tue Mar  6 04:30:06 2018.

 ----------------------------------------------------------------------
 #P Geom=AllCheck Guess=TCheck SCRF=Check GenChk UB3LYP/Aug-CC-pVDZ Fre
 q
 ----------------------------------------------------------------------

 C2H5+-UB3LYP-aug-cc-pVDZ-Singlet
 --------------------------------
 Redundant internal coordinates taken from checkpoint file:
 C2H5+-UB3LYP-aug-cc-pVDZ-Singlet.chk
 Charge =  1 Multiplicity = 1

                         Standard orientation:
 ---------------------------------------------------------------------
 Center     Atomic      Atomic             Coordinates (Angstroms)
 Number     Number       Type             X           Y           Z
 ---------------------------------------------------------------------
      1          6           0        0.692864    0.000005   -0.064458
      2          1           0        1.251743   -0.940499   -0.073888
      3          1           0        1.251699    0.940534   -0.073873
      4          6           0       -0.692863    0.000003   -0.064484
      5          1           0       -1.251610   -0.940592   -0.073958
      6          1           0       -0.000194   -0.000068    1.069260
      7          1           0       -1.251638    0.940579   -0.073892
 ---------------------------------------------------------------------

 SCF Done:  E(UB3LYP) =  -78.8666013722     A.U. after    1 cycles

 The electronic state is 1-A.
 Alpha  occ. eigenvalues --  -10.52488 -10.52431  -1.11871  -0.87717  -0.76592
 Alpha  occ. eigenvalues --   -0.74597  -0.67488  -0.65013
 Alpha virt. eigenvalues --   -0.32403  -0.21697  -0.17043  -0.15050  -0.14783
 Alpha virt. eigenvalues --   -0.12018  -0.09637  -0.08472  -0.07226  -0.05251
 Alpha virt. eigenvalues --   -0.04670  -0.03927  -0.03409  -0.03111  -0.02290

  Beta  occ. eigenvalues --  -10.52488 -10.52431  -1.11871  -0.87717  -0.76592
  Beta  occ. eigenvalues --   -0.74597  -0.67488  -0.65013
  Beta virt. eigenvalues --   -0.32403  -0.21697  -0.17043  -0.15050  -0.14783
  Beta virt. eigenvalues --   -0.12018  -0.09637  -0.08472  -0.07226  -0.05251
  Beta virt. eigenvalues --   -0.04670  -0.03927  -0.03409  -0.03111  -0.02290

 Mulliken atomic charges:
              1
     1  C    0.938554
     2  H   -0.266986
     3  H   -0.266978
     4  C    0.938574
     5  H   -0.266825
     6  H    0.190497
     7  H   -0.266835
 Sum of Mulliken atomic charges =   1.00000

 Dipole moment (field-independent basis, Debye):
    X=              0.0003    Y=              0.0000    Z=              0.7137  Tot=              0.7137
 Quadrupole moment (field-independent basis, Debye-Ang):
   XX=             -6.9539   YY=             -9.4136   ZZ=            -11.0884
   XY=             -0.0001   XZ=             -0.0002   YZ=             -0.0001

  Exact polarizability:  26.121   0.000  19.781   0.000  -0.001  17.790
 Approx polarizability:  35.974   0.000  25.772  -0.001   0.000  26.592

                     1                      2                      3
                     A                      A                      A
 Frequencies --   541.4856               832.1035              1055.6205
 Red. masses --     1.3188                 1.0262                 1.0432
 Frc consts  --     0.2278                 0.4186                 0.6849
 IR Inten    --   136.2823                 0.0440                21.0046

                     4                      5                      6
                     A                      A                      A
 Frequencies --  1062.6448              1136.3829              1233.2311
 Red. masses --     1.0086                 1.1506                 1.4742
 Frc consts  --     0.6710                 0.8754                 1.3210
 IR Inten    --     0.0055                42.9521                 0.0000

                     7                      8                      9
                     A                      A                      A
 Frequencies --  1252.9424              1350.8687              1461.3822
 Red. masses --     1.1909                 1.5679                 1.1106
 Frc consts  --     1.1015                 1.6858                 1.3974
 IR Inten    --     0.8354                 7.4981                22.0890

                    10                     11                     12
                     A                      A                      A
 Frequencies --  1565.7061              2134.2470              3127.8362
 Red. masses --     1.9413                 1.0693                 1.0667
 Frc consts  --     2.8039                 2.8698                 6.1485
 IR Inten    --     8.8144                41.8616                 0.5145

                    13                     14                     15
                     A                      A                      A
 Frequencies --  3128.3866              3234.8824              3252.6672
 Red. masses --     1.0483                 1.1271                 1.1205
 Frc consts  --     6.0449                 6.9489                 6.9844
 IR Inten    --    28.2122                 0.0002                56.5410

 - Thermochemistry -
 -------------------
 Temperature   298.150 Kelvin.  Pressure   1.00000 Atm.
 Atom     1 has atomic number  6 and mass  12.00000

 Molecular mass:    29.03913 amu.
 Principal axes and moments of inertia in atomic units:
                           1         2         3
     Eigenvalues --    17.21246  68.17504  76.43309
           X            1.00000   0.00000  -0.00001
           Y            0.00000   1.00000   0.00000
           Z            0.00001   0.00000   1.00000
 This molecule is an asymmetric top.
 Rotational symmetry number  1.
 Rotational temperatures (Kelvin)      5.03204     1.27046     1.13320
 Rotational constants (GHZ):         104.85084    26.47217    23.61204
 Zero-point vibrational energy     157729.9 (Joules/Mol)
                                   37.69836 (Kcal/Mol)
 Warning -- explicit consideration of   1 degrees of freedom as
           vibrations may cause significant error
 Vibrational temperatures:    779.08  1197.21  1518.80  1528.91  1635.00
          (Kelvin)           1774.34  1802.70  1943.60  2102.60  2252.70
                             3070.70  4500.25  4501.04  4654.27  4679.86

 Zero-point correction=                           0.060076 (Hartree/Particle)
 Thermal correction to Energy=                    0.063301
 Thermal correction to Enthalpy=                  0.064245
 Thermal correction to Gibbs Free Energy=         0.037530
 Sum of electronic and zero-point Energies=            -78.806525
 Sum of electronic and thermal Energies=               -78.803301
 Sum of electronic and thermal Enthalpies=             -78.802356
 Sum of electronic and thermal Free Energies=          -78.829072

                     E (Thermal)             CV                S
                      KCal/Mol        Cal/Mol-Kelvin    Cal/Mol-Kelvin
 Total                   39.722              9.238             56.227
 Electronic               0.000              0.000              0.000
 Translational            0.889              2.981             36.032
 Rotational               0.889              2.981             19.134
 Vibrational             37.944              3.276              1.061
 Vibration     1          0.897              1.158              0.562

 Optimization completed.
    -- Stationary point found.
 Normal termination of Gaussian 09 at Tue Mar  6 04:30:25 2018.
