 Gaussian 09, Revision B.01,
 Gaussian 09:  EM64L-G09RevB.01 12-Aug-2010

 -------------------------------------------------
 #p Temperature=298.15 opt freq UB3LYP/aug-cc-pVDZ
 -------------------------------------------------

 --------------------------------
 C2H5+-UB3LYP-aug-cc-pVDZ-Triplet
 --------------------------------
 Symbolic Z-matrix:
 Charge =  1 Multiplicity = 3

 SCF Done:  E(UB3LYP) =  -78.6884417076     A.U. after   15 cycles
 SCF Done:  E(UB3LYP) =  -78.7162547197     A.U. after   13 cycles
 SCF Done:  E(UB3LYP) =  -78.7284928423     A.U. after   12 cycles
 SCF Done:  E(UB3LYP) =  -78.7296264478     A.U. after   11 cycles
 SCF Done:  E(UB3LYP) =  -78.7300758055     A.U. after   10 cycles
 SCF Done:  E(UB3LYP) =  -78.7310619219     A.U. after   11 cycles
 SCF Done:  E(UB3LYP) =  -78.7315576347     A.U. after   13 cycles
 SCF Done:  E(UB3LYP) =  -78.7319006248     A.U. after   13 cycles
 SCF Done:  E(UB3LYP) =  -78.7319296282     A.U. after   13 cycles
 SCF Done:  E(UB3LYP) =  -78.7320103522     A.U. after   13 cycles
 SCF Done:  E(UB3LYP) =  -78.7320312023     A.U. after   13 cycles
 Optimization completed.
    -- Stationary point found.
 Normal termination of Gaussian 09 at Thu Jan 20 22:35:18 2005.

 ----------------------------------------------------------------------
 #P Geom=AllCheck Guess=TCheck SCRF=Check GenChk UB3LYP/Aug-CC-pVDZ Fre
 q
 ----------------------------------------------------------------------

 C2H5+-UB3LYP-aug-cc-pVDZ-Triplet
 --------------------------------
 Redundant internal coordinates taken from checkpoint file:
 C2H5+-UB3LYP-aug-cc-pVDZ-Triplet.chk
 Charge =  1 Multiplicity = 3

                         Standard orientation:
 ---------------------------------------------------------------------
 Center     Atomic      Atomic             Coordinates (Angstroms)
 Number     Number       Type             X           Y           Z
 ---------------------------------------------------------------------
      1          6           0       -0.772154    0.000111   -0.034228
      2          1           0       -1.393022    0.920807    0.011459
      3          1           0       -1.391042   -0.922345    0.007712
      4          6           0        0.640308   -0.000020    0.085957
      5          1           0        1.210711    0.674473   -0.693675
      6          1           0        1.152153   -0.002191    1.059475
      7          1           0        1.212278   -0.671291   -0.695349
 ---------------------------------------------------------------------

 SCF Done:  E(UB3LYP) =  -78.7320312023     A.U. after    1 cycles

 The electronic state is 3-A.
 Alpha  occ. eigenvalues --  -10.53168 -10.47274  -1.08349  -0.91906  -0.75592
 Alpha  occ. eigenvalues --   -0.72470  -0.71720  -0.61635  -0.48375
 Alpha virt. eigenvalues --   -0.20436  -0.19089  -0.15998  -0.13626  -0.11731
 Alpha virt. eigenvalues --   -0.10481  -0.08699  -0.08133  -0.06702  -0.05148
 Alpha virt. eigenvalues --   -0.05101  -0.03777  -0.02733  -0.01310  -0.01148

  Beta  occ. eigenvalues --  -10.52662 -10.45712  -1.04411  -0.86758  -0.72972
  Beta  occ. eigenvalues --   -0.69668  -0.67271
  Beta virt. eigenvalues --   -0.49672  -0.32086  -0.19515  -0.16008  -0.14974
  Beta virt. eigenvalues --   -0.13304  -0.10969  -0.10017  -0.08269  -0.07458
  Beta virt. eigenvalues --   -0.05274  -0.04652  -0.04263  -0.02468  -0.02078

 Mulliken atomic charges:
              1
     1  C    0.778847
     2  H   -0.222726
     3  H   -0.221418
     4  C    0.603882
     5  H    0.109173
     6  H   -0.156401
     7  H    0.108643
 Sum of Mulliken atomic charges =   1.00000

 Dipole moment (field-independent basis, Debye):
    X=              1.5197    Y=              0.0003    Z=             -0.6932  Tot=              1.6703
 Quadrupole moment (field-independent basis, Debye-Ang):
   XX=             -4.6524   YY=             -9.8364   ZZ=            -11.1205
   XY=              0.0024   XZ=             -1.3272   YZ=              0.0008

  Exact polarizability:  38.610   0.011  21.459  -1.715  -0.001  20.385
 Approx polarizability:  57.255   0.025  30.325  -3.566   0.000  27.168

                     1                      2                      3
                     A                      A                      A
 Frequencies --   318.3678               388.6026               504.8737
 Red. masses --     1.2299                 1.1235                 1.1173
 Frc consts  --     0.0735                 0.1000                 0.1678
 IR Inten    --   116.3644                37.7911                27.4126

                     4                      5                      6
                     A                      A                      A
 Frequencies --   629.4581               754.8694               870.4884
 Red. masses --     1.0584                 1.1544                 1.3497
 Frc consts  --     0.2471                 0.3876                 0.6026
 IR Inten    --     7.7063               619.7341                78.0258

                     7                      8                      9
                     A                      A                      A
 Frequencies --   948.1561              1165.3882              1312.6810
 Red. masses --     1.3135                 1.3456                 1.6121
 Frc consts  --     0.6957                 1.0767                 1.6367
 IR Inten    --    33.1774                 9.6144                37.9055

                    10                     11                     12
                     A                      A                      A
 Frequencies --  1405.5988              2201.8979              2505.3540
 Red. masses --     1.3813                 1.0314                 1.0915
 Frc consts  --     1.6079                 2.9463                 4.0367
 IR Inten    --     6.9858                98.3281               174.4899

                    13                     14                     15
                     A                      A                      A
 Frequencies --  2945.5543              2957.9607              3097.6373
 Red. masses --     1.0596                 1.0948                 1.0885
 Frc consts  --     5.4163                 5.6437                 6.1536
 IR Inten    --   355.3591               131.4620                21.7854

 - Thermochemistry -
 -------------------
 Temperature   298.150 Kelvin.  Pressure   1.00000 Atm.
 Atom     1 has atomic number  6 and mass  12.00000

 Molecular mass:    29.03913 amu.
 Principal axes and moments of inertia in atomic units:
                           1         2         3
     Eigenvalues --    17.19192  80.20125  81.75410
           X            0.99963   0.00003  -0.02730
           Y           -0.00003   1.00000   0.00005
           Z            0.02730  -0.00005   0.99963
 This molecule is an asymmetric top.
 Rotational symmetry number  1.
 Rotational temperatures (Kelvin)      5.03805     1.07996     1.05944
 Rotational constants (GHZ):         104.97613    22.50266    22.07524
 Zero-point vibrational energy     131630.4 (Joules/Mol)
                                   31.46043 (Kcal/Mol)
 Warning -- explicit consideration of   3 degrees of freedom as
           vibrations may cause significant error
 Vibrational temperatures:    458.06   559.11   726.40   905.65  1086.09
          (Kelvin)           1252.44  1364.18  1676.73  1888.65  2022.34
                             3168.04  3604.64  4237.99  4255.84  4456.80

 Zero-point correction=                           0.050135 (Hartree/Particle)
 Thermal correction to Energy=                    0.054286
 Thermal correction to Enthalpy=                  0.055231
 Thermal correction to Gibbs Free Energy=         0.025982
 Sum of electronic and zero-point Energies=            -78.681896
 Sum of electronic and thermal Energies=               -78.677745
 Sum of electronic and thermal Enthalpies=             -78.676801
 Sum of electronic and thermal Free Energies=          -78.706050

                     E (Thermal)             CV                S
                      KCal/Mol        Cal/Mol-Kelvin    Cal/Mol-Kelvin
 Total                   34.065             13.493             61.560
 Electronic               0.000              0.000              2.183
 Translational            0.889              2.981             36.032
 Rotational               0.889              2.981             19.361
 Vibrational             32.288              7.531              3.983
 Vibration     1          0.705              1.638              1.318
 Vibration     2          0.757              1.495              1.006
 Vibration     3          0.860              1.239              0.646

 Normal termination of Gaussian 09 at Thu Jan 20 22:35:39 2005.
