 Gaussian 09, Revision B.01,
 Gaussian 09:  EM64L-G09RevB.01 12-Aug-2010

 -------------------------------------------------
 #p Temperature=298.15 opt freq UB3LYP/aug-cc-pVDZ
 -------------------------------------------------

 -----------------------------------
 C2H5-N2+-UB3LYP-aug-cc-pVDZ-Singlet
 -----------------------------------
 Symbolic Z-matrix:
 Charge =  1 Multiplicity = 1

 SCF Done:  E(UB3LYP) =  -188.389652622     A.U. after   12 cycles
 SCF Done:  E(UB3LYP) =  -188.429045385     A.U. after   12 cycles
 SCF Done:  E(UB3LYP) =  -188.429685955     A.U. after   10 cycles
 SCF Done:  E(UB3LYP) =  -188.429875582     A.U. after   12 cycles
 SCF Done:  E(UB3LYP) =  -188.429931140     A.U. after    9 cycles
 SCF Done:  E(UB3LYP) =  -188.429946845     A.U. after    9 cycles
 SCF Done:  E(UB3LYP) =  -188.429949232     A.U. after   13 cycles
 Optimization completed.
    -- Stationary point found.
 Normal termination of Gaussian 09 at Tue Mar  6 04:27:56 2018.

 ----------------------------------------------------------------------
 #P Geom=AllCheck Guess=TCheck SCRF=Check GenChk UB3LYP/Aug-CC-pVDZ Fre
 q
 ----------------------------------------------------------------------

 C2H5-N2+-UB3LYP-aug-cc-pVDZ-Singlet
 -----------------------------------
 Redundant internal coordinates taken from checkpoint file:
 C2H5-N2+-UB3LYP-aug-cc-pVDZ-Singlet.chk
 Charge =  1 Multiplicity = 1

                         Standard orientation:
 ---------------------------------------------------------------------
 Center     Atomic      Atomic             Coordinates (Angstroms)
 Number     Number       Type             X           Y           Z
 ---------------------------------------------------------------------
      1          6           0        0.523403    0.666357   -0.000001
      2          1           0        0.534533    1.295695   -0.901445
      3          1           0        0.534532    1.295697    0.901442
      4          7           0       -0.855553    0.103812    0.000001
      5          7           0       -1.862167   -0.347612    0.000000
      6          6           0        1.554416   -0.460194   -0.000001
      7          1           0        1.476792   -1.078928   -0.900816
      8          1           0        2.534459    0.036066   -0.000003
      9          1           0        1.476806   -1.078912    0.900827
 ---------------------------------------------------------------------

 SCF Done:  E(UB3LYP) =  -188.429949232     A.U. after    1 cycles

 The electronic state is 1-A.
 Alpha  occ. eigenvalues --  -14.76022 -14.73865 -10.51672 -10.40603  -1.42456
 Alpha  occ. eigenvalues --   -1.09964  -0.92792  -0.81189  -0.78111  -0.75986
 Alpha  occ. eigenvalues --   -0.72795  -0.68581  -0.63090  -0.60677  -0.59087
 Alpha virt. eigenvalues --   -0.30953  -0.30849  -0.19090  -0.15162  -0.13509
 Alpha virt. eigenvalues --   -0.13254  -0.12041  -0.09346  -0.08749  -0.07735
 Alpha virt. eigenvalues --   -0.07134  -0.06654  -0.05681  -0.03985  -0.03255

  Beta  occ. eigenvalues --  -14.76022 -14.73865 -10.51672 -10.40603  -1.42456
  Beta  occ. eigenvalues --   -1.09964  -0.92792  -0.81189  -0.78111  -0.75986
  Beta  occ. eigenvalues --   -0.72795  -0.68581  -0.63090  -0.60677  -0.59087
  Beta virt. eigenvalues --   -0.30953  -0.30849  -0.19090  -0.15162  -0.13509
  Beta virt. eigenvalues --   -0.13254  -0.12041  -0.09346  -0.08749  -0.07735
  Beta virt. eigenvalues --   -0.07134  -0.06654  -0.05681  -0.03985  -0.03255

 Mulliken atomic charges:
              1
     1  C    1.156027
     2  H   -0.322946
     3  H   -0.322946
     4  N    0.513904
     5  N   -0.358040
     6  C    0.817646
     7  H   -0.169204
     8  H   -0.145238
     9  H   -0.169203
 Sum of Mulliken atomic charges =   1.00000

 Dipole moment (field-independent basis, Debye):
    X=              0.4999    Y=              1.2467    Z=              0.0000  Tot=              1.3431
 Quadrupole moment (field-independent basis, Debye-Ang):
   XX=            -14.4968   YY=            -18.9303   ZZ=            -20.2627
   XY=              0.1928   XZ=              0.0000   YZ=              0.0000

  Exact polarizability:  46.141   2.599  31.163   0.000   0.000  27.784
 Approx polarizability:  69.802   9.895  44.830   0.000   0.000  39.367

                     1                      2                      3
                     A                      A                      A
 Frequencies --   200.8987               213.0090               354.4467
 Red. masses --     4.4236                 1.1950                 3.1731
 Frc consts  --     0.1052                 0.0319                 0.2349
 IR Inten    --     1.0188                 0.0272                 0.0883

                     4                      5                      6
                     A                      A                      A
 Frequencies --   500.4922               613.4472               781.8515
 Red. masses --     5.4338                 5.1219                 1.1372
 Frc consts  --     0.8019                 1.1356                 0.4096
 IR Inten    --     4.5322                 2.3819                 4.9959

                     7                      8                      9
                     A                      A                      A
 Frequencies --   929.2023              1095.0038              1139.7266
 Red. masses --     2.2785                 1.9630                 1.5414
 Frc consts  --     1.1591                 1.3867                 1.1797
 IR Inten    --     3.0670                10.3460                 2.0680

                    10                     11                     12
                     A                      A                      A
 Frequencies --  1285.4073              1320.0546              1395.1016
 Red. masses --     1.1053                 1.2126                 1.1754
 Frc consts  --     1.0760                 1.2449                 1.3478
 IR Inten    --     1.7227                 3.3989                 2.1895

                    13                     14                     15
                     A                      A                      A
 Frequencies --  1432.0696              1448.4424              1465.9512
 Red. masses --     1.0614                 1.0335                 1.0501
 Frc consts  --     1.2825                 1.2775                 1.3295
 IR Inten    --    18.9453                15.2065                10.5412

                    16                     17                     18
                     A                      A                      A
 Frequencies --  2442.0308              3061.5337              3073.6729
 Red. masses --    13.3624                 1.0349                 1.0573
 Frc consts  --    46.9502                 5.7149                 5.8850
 IR Inten    --     0.7221                 4.4587                21.4235

                    19                     20                     21
                     A                      A                      A
 Frequencies --  3135.8683              3145.3382              3170.1146
 Red. masses --     1.1104                 1.1023                 1.1080
 Frc consts  --     6.4337                 6.4249                 6.5607
 IR Inten    --    16.7274                 4.8547                 1.2966

 - Thermochemistry -
 -------------------
 Temperature   298.150 Kelvin.  Pressure   1.00000 Atm.
 Atom     1 has atomic number  6 and mass  12.00000

 Molecular mass:    57.04527 amu.
 Principal axes and moments of inertia in atomic units:
                           1         2         3
     Eigenvalues --    66.71715 375.30615 418.64297
           X            0.99982  -0.01904   0.00000
           Y            0.01904   0.99982   0.00000
           Z            0.00000   0.00000   1.00000
 This molecule is an asymmetric top.
 Rotational symmetry number  1.
 Rotational temperatures (Kelvin)      1.29822     0.23078     0.20689
 Rotational constants (GHZ):          27.05064     4.80872     4.31093
 Zero-point vibrational energy     192620.7 (Joules/Mol)
                                   46.03745 (Kcal/Mol)
 Warning -- explicit consideration of   5 degrees of freedom as
           vibrations may cause significant error
 Vibrational temperatures:    289.05   306.47   509.97   720.10   882.61
          (Kelvin)           1124.91  1336.91  1575.46  1639.81  1849.41
                             1899.26  2007.24  2060.43  2083.98  2109.17
                             3513.53  4404.86  4422.32  4511.81  4525.43
                             4561.08

 Zero-point correction=                           0.073365 (Hartree/Particle)
 Thermal correction to Energy=                    0.078258
 Thermal correction to Enthalpy=                  0.079202
 Thermal correction to Gibbs Free Energy=         0.046483
 Sum of electronic and zero-point Energies=           -188.356584
 Sum of electronic and thermal Energies=              -188.351692
 Sum of electronic and thermal Enthalpies=            -188.350747
 Sum of electronic and thermal Free Energies=         -188.383466

                     E (Thermal)             CV                S
                      KCal/Mol        Cal/Mol-Kelvin    Cal/Mol-Kelvin
 Total                   49.107             15.787             68.863
 Electronic               0.000              0.000              0.000
 Translational            0.889              2.981             38.045
 Rotational               0.889              2.981             23.865
 Vibrational             47.330              9.826              6.953
 Vibration     1          0.638              1.839              2.125
 Vibration     2          0.644              1.821              2.018
 Vibration     3          0.730              1.566              1.146
 Vibration     4          0.856              1.249              0.657
 Vibration     5          0.973              1.003              0.427

 Optimization completed.
    -- Stationary point found.
 Normal termination of Gaussian 09 at Tue Mar  6 04:29:02 2018.
