 Gaussian 09, Revision B.01,
 Gaussian 09:  EM64L-G09RevB.01 12-Aug-2010

 -------------------------------------------------
 #p Temperature=298.15 opt freq UB3LYP/aug-cc-pVDZ
 -------------------------------------------------

 ---------------------------------
 C2H5-N2-UB3LYP-aug-cc-pVDZ-Duplet
 ---------------------------------
 Symbolic Z-matrix:
 Charge =  0 Multiplicity = 2

 SCF Done:  E(UB3LYP) =  -188.640721475     A.U. after   36 cycles
 SCF Done:  E(UB3LYP) =  -188.650908014     A.U. after   20 cycles
 SCF Done:  E(UB3LYP) =  -188.669991647     A.U. after   16 cycles
 SCF Done:  E(UB3LYP) =  -188.673887830     A.U. after   13 cycles
 SCF Done:  E(UB3LYP) =  -188.608160247     A.U. after   19 cycles
 SCF Done:  E(UB3LYP) =  -188.617864348     A.U. after   14 cycles
 SCF Done:  E(UB3LYP) =  -188.627415279     A.U. after   14 cycles
 SCF Done:  E(UB3LYP) =  -188.636795176     A.U. after   14 cycles
 SCF Done:  E(UB3LYP) =  -188.645896776     A.U. after   14 cycles
 SCF Done:  E(UB3LYP) =  -188.654576448     A.U. after   14 cycles
 SCF Done:  E(UB3LYP) =  -188.690673089     A.U. after   14 cycles
 SCF Done:  E(UB3LYP) =  -188.690241600     A.U. after   17 cycles
 SCF Done:  E(UB3LYP) =  -188.690718525     A.U. after   15 cycles
 SCF Done:  E(UB3LYP) =  -188.690921702     A.U. after   13 cycles
 SCF Done:  E(UB3LYP) =  -188.690971596     A.U. after   12 cycles
 SCF Done:  E(UB3LYP) =  -188.690983554     A.U. after   12 cycles
 SCF Done:  E(UB3LYP) =  -188.691004160     A.U. after   13 cycles
 SCF Done:  E(UB3LYP) =  -188.691021452     A.U. after   13 cycles
 SCF Done:  E(UB3LYP) =  -188.691025145     A.U. after   12 cycles
 Optimization completed.
    -- Stationary point found.
 Normal termination of Gaussian 09 at Tue Mar  6 06:44:18 2018.

 ----------------------------------------------------------------------
 #P Geom=AllCheck Guess=TCheck SCRF=Check GenChk UB3LYP/Aug-CC-pVDZ Fre
 q
 ----------------------------------------------------------------------

 C2H5-N2-UB3LYP-aug-cc-pVDZ-Duplet
 ---------------------------------
 Redundant internal coordinates taken from checkpoint file:
 C2H5-N2-UB3LYP-aug-cc-pVDZ-Duplet.chk
 Charge =  0 Multiplicity = 2

                         Standard orientation:
 ---------------------------------------------------------------------
 Center     Atomic      Atomic             Coordinates (Angstroms)
 Number     Number       Type             X           Y           Z
 ---------------------------------------------------------------------
      1          6           0        0.414146    0.613296    0.025720
      2          1           0        0.544000    1.384049   -0.744572
      3          1           0        0.215539    1.087563    0.996285
      4          7           0       -0.836211   -0.151008   -0.399262
      5          7           0       -1.813454   -0.188749    0.253944
      6          6           0        1.599119   -0.340512    0.064068
      7          1           0        1.736872   -0.832566   -0.907615
      8          1           0        2.514804    0.216829    0.304348
      9          1           0        1.456844   -1.114279    0.830054
 ---------------------------------------------------------------------

 SCF Done:  E(UB3LYP) =  -188.691025145     A.U. after    1 cycles

 The electronic state is 2-A.
 Alpha  occ. eigenvalues --  -14.41430 -14.39578 -10.24729 -10.20292  -1.07002
 Alpha  occ. eigenvalues --   -0.81187  -0.68260  -0.57433  -0.49844  -0.45968
 Alpha  occ. eigenvalues --   -0.45491  -0.41553  -0.40039  -0.38066  -0.36760
 Alpha  occ. eigenvalues --   -0.20197
 Alpha virt. eigenvalues --   -0.04187  -0.01048   0.00768   0.01277   0.02348
 Alpha virt. eigenvalues --    0.04361   0.05718   0.06344   0.07213   0.07826
 Alpha virt. eigenvalues --    0.09528   0.10322   0.10784   0.11043   0.12567

  Beta  occ. eigenvalues --  -14.41108 -14.38117 -10.24312 -10.20305  -1.05285
  Beta  occ. eigenvalues --   -0.80281  -0.67287  -0.55891  -0.48915  -0.44612
  Beta  occ. eigenvalues --   -0.43258  -0.40162  -0.39384  -0.37162  -0.35135
  Beta virt. eigenvalues --   -0.07012  -0.03069  -0.00790   0.00840   0.01328
  Beta virt. eigenvalues --    0.02458   0.04376   0.05868   0.06363   0.07289
  Beta virt. eigenvalues --    0.07898   0.09704   0.10445   0.10821   0.11127

 Mulliken atomic charges:
              1
     1  C    1.081392
     2  H   -0.356952
     3  H   -0.342621
     4  N   -0.007827
     5  N   -0.461336
     6  C    0.783032
     7  H   -0.221161
     8  H   -0.227898
     9  H   -0.246628
 Sum of Mulliken atomic charges =   0.00000

 Dipole moment (field-independent basis, Debye):
    X=              2.7131    Y=              0.9546    Z=              0.0767  Tot=              2.8772
 Quadrupole moment (field-independent basis, Debye-Ang):
   XX=            -28.5991   YY=            -24.4031   ZZ=            -25.4912
   XY=             -0.5901   XZ=              0.5197   YZ=             -0.6205

  Exact polarizability:  53.391   1.966  37.600  -2.771   1.087  38.057
 Approx polarizability:  71.546   4.080  50.900  -8.123   0.575  55.354

                     1                      2                      3
                     A                      A                      A
 Frequencies --    81.4750               221.0701               373.4889
 Red. masses --     5.4925                 1.1163                 3.2984
 Frc consts  --     0.0215                 0.0321                 0.2711
 IR Inten    --     0.1692                 0.2189                 2.6929

                     4                      5                      6
                     A                      A                      A
 Frequencies --   454.9040               675.0016               804.4713
 Red. masses --     4.5846                 4.7339                 1.1295
 Frc consts  --     0.5590                 1.2708                 0.4307
 IR Inten    --    10.8328                 1.9667                 0.6248

                     7                      8                      9
                     A                      A                      A
 Frequencies --   982.9272              1075.3659              1108.9641
 Red. masses --     1.8575                 1.9580                 1.4749
 Frc consts  --     1.0574                 1.3341                 1.0687
 IR Inten    --     3.1937                 3.6909                 6.1993

                    10                     11                     12
                     A                      A                      A
 Frequencies --  1256.2883              1306.9157              1390.1775
 Red. masses --     1.1931                 1.2709                 1.2433
 Frc consts  --     1.1095                 1.2790                 1.4157
 IR Inten    --     0.7889                11.9754                 4.7449

                    13                     14                     15
                     A                      A                      A
 Frequencies --  1460.7113              1462.8384              1474.8344
 Red. masses --     1.0480                 1.0689                 1.0576
 Frc consts  --     1.3175                 1.3477                 1.3554
 IR Inten    --     6.5550                 2.5159                 5.9007

                    16                     17                     18
                     A                      A                      A
 Frequencies --  1894.9760              3043.8685              3055.7023
 Red. masses --    13.2737                 1.0349                 1.0575
 Frc consts  --    28.0834                 5.6494                 5.8178
 IR Inten    --    15.9451                16.4307                17.4812

                    19                     20                     21
                     A                      A                      A
 Frequencies --  3112.1484              3119.2145              3132.8989
 Red. masses --     1.1052                 1.1018                 1.1073
 Frc consts  --     6.3066                 6.3163                 6.4032
 IR Inten    --     2.9466                14.3319                27.7549

 - Thermochemistry -
 -------------------
 Temperature   298.150 Kelvin.  Pressure   1.00000 Atm.
 Atom     1 has atomic number  6 and mass  12.00000

 Molecular mass:    57.04527 amu.
 Principal axes and moments of inertia in atomic units:
                           1         2         3
     Eigenvalues --    64.90296 379.06795 398.51579
           X            0.99986  -0.01638   0.00292
           Y            0.01641   0.99983  -0.00878
           Z           -0.00278   0.00882   0.99996
 This molecule is an asymmetric top.
 Rotational symmetry number  1.
 Rotational temperatures (Kelvin)      1.33451     0.22849     0.21734
 Rotational constants (GHZ):          27.80676     4.76100     4.52866
 Zero-point vibrational energy     188341.5 (Joules/Mol)
                                   45.01470 (Kcal/Mol)
 Warning -- explicit consideration of   4 degrees of freedom as
           vibrations may cause significant error
 Vibrational temperatures:    117.22   318.07   537.37   654.50   971.18
          (Kelvin)           1157.45  1414.21  1547.21  1595.55  1807.52
                             1880.36  2000.15  2101.64  2104.70  2121.96
                             2726.44  4379.44  4396.47  4477.68  4487.85
                             4507.54

 Zero-point correction=                           0.071735 (Hartree/Particle)
 Thermal correction to Energy=                    0.076804
 Thermal correction to Enthalpy=                  0.077748
 Thermal correction to Gibbs Free Energy=         0.043651
 Sum of electronic and zero-point Energies=           -188.619290
 Sum of electronic and thermal Energies=              -188.614221
 Sum of electronic and thermal Enthalpies=            -188.613277
 Sum of electronic and thermal Free Energies=         -188.647374

                     E (Thermal)             CV                S
                      KCal/Mol        Cal/Mol-Kelvin    Cal/Mol-Kelvin
 Total                   48.195             15.797             71.763
 Electronic               0.000              0.000              1.377
 Translational            0.889              2.981             38.045
 Rotational               0.889              2.981             23.798
 Vibrational             46.418              9.835              8.543
 Vibration     1          0.600              1.962              3.855
 Vibration     2          0.648              1.809              1.950
 Vibration     3          0.745              1.527              1.065
 Vibration     4          0.813              1.350              0.781

 Optimization completed.
    -- Stationary point found.
 Normal termination of Gaussian 09 at Tue Mar  6 06:45:27 2018.
