 Gaussian 09, Revision B.01,
 Gaussian 09:  EM64L-G09RevB.01 12-Aug-2010

 -------------------------------------------------
 #p Temperature=298.15 opt freq UB3LYP/aug-cc-pVDZ
 -------------------------------------------------

 -------------------------------
 CH3+-UB3LYP-aug-cc-pVDZ-Singlet
 -------------------------------
 Symbolic Z-matrix:
 Charge =  1 Multiplicity = 1

 SCF Done:  E(UB3LYP) =  -39.4318844742     A.U. after    7 cycles
 SCF Done:  E(UB3LYP) =  -39.4658832594     A.U. after    8 cycles
 SCF Done:  E(UB3LYP) =  -39.4805483642     A.U. after    8 cycles
 SCF Done:  E(UB3LYP) =  -39.4809137495     A.U. after    7 cycles
 SCF Done:  E(UB3LYP) =  -39.4809522701     A.U. after    7 cycles
 SCF Done:  E(UB3LYP) =  -39.4809611162     A.U. after    9 cycles
 Optimization completed.
    -- Stationary point found.
 Normal termination of Gaussian 09 at Tue Mar  6 04:31:25 2018.

 ----------------------------------------------------------------------
 #P Geom=AllCheck Guess=TCheck SCRF=Check GenChk UB3LYP/Aug-CC-pVDZ Fre
 q
 ----------------------------------------------------------------------

 CH3+-UB3LYP-aug-cc-pVDZ-Singlet
 -------------------------------
 Redundant internal coordinates taken from checkpoint file:
 CH3+-UB3LYP-aug-cc-pVDZ-Singlet.chk
 Charge =  1 Multiplicity = 1

                         Standard orientation:
 ---------------------------------------------------------------------
 Center     Atomic      Atomic             Coordinates (Angstroms)
 Number     Number       Type             X           Y           Z
 ---------------------------------------------------------------------
      1          6           0        0.000000   -0.000063   -0.000097
      2          1           0        0.953760   -0.550221    0.000193
      3          1           0       -0.953574   -0.550543    0.000193
      4          1           0       -0.000186    1.101143    0.000193
 ---------------------------------------------------------------------

 SCF Done:  E(UB3LYP) =  -39.4809611162     A.U. after    1 cycles

 The electronic state is 1-A.
 Alpha  occ. eigenvalues --  -10.65425  -1.04534  -0.78339  -0.78329
 Alpha virt. eigenvalues --   -0.48659  -0.21190  -0.15172  -0.15170  -0.11647
 Alpha virt. eigenvalues --   -0.11640  -0.11205  -0.08781  -0.03722  -0.03181
 Alpha virt. eigenvalues --   -0.03180  -0.00583  -0.00581   0.12388   0.12406

  Beta  occ. eigenvalues --  -10.65425  -1.04534  -0.78339  -0.78329
  Beta virt. eigenvalues --   -0.48659  -0.21190  -0.15172  -0.15170  -0.11647
  Beta virt. eigenvalues --   -0.11640  -0.11205  -0.08781  -0.03722  -0.03181
  Beta virt. eigenvalues --   -0.03180  -0.00583  -0.00581   0.12388   0.12406

 Mulliken atomic charges:
              1
     1  C    0.858992
     2  H    0.046931
     3  H    0.046931
     4  H    0.047146
 Sum of Mulliken atomic charges =   1.00000

 Dipole moment (field-independent basis, Debye):
    X=              0.0000    Y=              0.0002    Z=              0.0000  Tot=              0.0002
 Quadrupole moment (field-independent basis, Debye-Ang):
   XX=             -4.0298   YY=             -4.0313   ZZ=             -5.0401
   XY=              0.0000   XZ=              0.0000   YZ=              0.0000

  Exact polarizability:  10.169   0.001  10.169   0.000   0.000   7.167
 Approx polarizability:  12.060   0.000  12.060   0.000   0.000   9.723

                     1                      2                      3
                     A                      A                      A
 Frequencies --  1385.3032              1385.7814              1427.5949
 Red. masses --     1.0975                 1.0974                 1.2356
 Frc consts  --     1.2409                 1.2416                 1.4837
 IR Inten    --    18.1803                18.1562                10.2471

                     4                      5                      6
                     A                      A                      A
 Frequencies --  3012.4822              3218.4676              3219.6136
 Red. masses --     1.0078                 1.1231                 1.1232
 Frc consts  --     5.3887                 6.8547                 6.8600
 IR Inten    --     0.0006                70.8309                70.9407

 - Thermochemistry -
 -------------------
 Temperature   298.150 Kelvin.  Pressure   1.00000 Atm.
 Atom     1 has atomic number  6 and mass  12.00000

 Molecular mass:    15.02348 amu.
 Principal axes and moments of inertia in atomic units:
                           1         2         3
     Eigenvalues --     6.54428   6.54646  13.09075
           X            1.00000   0.00000   0.00000
           Y            0.00000   1.00000   0.00000
           Z            0.00000   0.00000   1.00000
 This molecule is an asymmetric top.
 Rotational symmetry number  1.
 Rotational temperatures (Kelvin)     13.23503    13.23063     6.61642
 Rotational constants (GHZ):         275.77365   275.68191   137.86390
 Zero-point vibrational energy      81640.6 (Joules/Mol)
                                   19.51257 (Kcal/Mol)
 Vibrational temperatures:   1993.14  1993.83  2053.99  4334.28  4630.65
          (Kelvin)           4632.30

 Zero-point correction=                           0.031095 (Hartree/Particle)
 Thermal correction to Energy=                    0.033950
 Thermal correction to Enthalpy=                  0.034894
 Thermal correction to Gibbs Free Energy=         0.011987
 Sum of electronic and zero-point Energies=            -39.449866
 Sum of electronic and thermal Energies=               -39.447011
 Sum of electronic and thermal Enthalpies=             -39.446067
 Sum of electronic and thermal Free Energies=          -39.468975

                     E (Thermal)             CV                S
                      KCal/Mol        Cal/Mol-Kelvin    Cal/Mol-Kelvin
 Total                   21.304              6.281             48.214
 Electronic               0.000              0.000              0.000
 Translational            0.889              2.981             34.068
 Rotational               0.889              2.981             14.092
 Vibrational             19.527              0.319              0.054

 Optimization completed.
    -- Stationary point found.
 Normal termination of Gaussian 09 at Tue Mar  6 04:31:29 2018.
