 Gaussian 09, Revision B.01,
 Gaussian 09:  EM64L-G09RevB.01 12-Aug-2010

 -------------------------------------------------
 #p Temperature=298.15 opt freq UB3LYP/aug-cc-pVDZ
 -------------------------------------------------

 -------------------------------
 CH3+-UB3LYP-aug-cc-pVDZ-Triplet
 -------------------------------
 Symbolic Z-matrix:
 Charge =  1 Multiplicity = 3

 SCF Done:  E(UB3LYP) =  -39.2947343315     A.U. after   31 cycles
 SCF Done:  E(UB3LYP) =  -39.3271048272     A.U. after   13 cycles
 SCF Done:  E(UB3LYP) =  -39.3453345332     A.U. after   12 cycles
 SCF Done:  E(UB3LYP) =  -39.3501299016     A.U. after   10 cycles
 SCF Done:  E(UB3LYP) =  -39.3515664507     A.U. after   11 cycles
 SCF Done:  E(UB3LYP) =  -39.3515777080     A.U. after    9 cycles
 SCF Done:  E(UB3LYP) =  -39.3515806091     A.U. after    9 cycles
 SCF Done:  E(UB3LYP) =  -39.3515811081     A.U. after    8 cycles
 Optimization completed.
    -- Stationary point found.
 Normal termination of Gaussian 09 at Thu Jan 20 00:19:51 2005.

 ----------------------------------------------------------------------
 #P Geom=AllCheck Guess=TCheck SCRF=Check GenChk UB3LYP/Aug-CC-pVDZ Fre
 q
 ----------------------------------------------------------------------

 CH3+-UB3LYP-aug-cc-pVDZ-Triplet
 -------------------------------
 Redundant internal coordinates taken from checkpoint file:
 CH3+-UB3LYP-aug-cc-pVDZ-Triplet.chk
 Charge =  1 Multiplicity = 3

                         Standard orientation:
 ---------------------------------------------------------------------
 Center     Atomic      Atomic             Coordinates (Angstroms)
 Number     Number       Type             X           Y           Z
 ---------------------------------------------------------------------
      1          6           0        0.102461   -0.000052   -0.119604
      2          1           0       -0.853149   -0.645325    0.182627
      3          1           0        1.092011    0.000311    0.352594
      4          1           0       -0.853625    0.645326    0.182399
 ---------------------------------------------------------------------

 SCF Done:  E(UB3LYP) =  -39.3515811081     A.U. after    1 cycles

 The electronic state is 3-A.
 Alpha  occ. eigenvalues --  -10.62879  -1.09480  -0.82889  -0.72027  -0.63229
 Alpha virt. eigenvalues --   -0.26030  -0.23820  -0.15537  -0.14063  -0.12130
 Alpha virt. eigenvalues --   -0.11817  -0.08820  -0.05178  -0.04337  -0.03191
 Alpha virt. eigenvalues --   -0.01373  -0.00421   0.09527   0.11998   0.12691

  Beta  occ. eigenvalues --  -10.60246  -1.00839  -0.79934
  Beta virt. eigenvalues --   -0.54428  -0.42461  -0.23606  -0.17922  -0.14753
  Beta virt. eigenvalues --   -0.12867  -0.11251  -0.09900  -0.07479  -0.04624
  Beta virt. eigenvalues --   -0.02981  -0.02741   0.00952   0.01491   0.11088

 Mulliken atomic charges:
              1
     1  C    0.404104
     2  H    0.295916
     3  H    0.003364
     4  H    0.296616
 Sum of Mulliken atomic charges =   1.00000

 Dipole moment (field-independent basis, Debye):
    X=             -1.3263    Y=              0.0006    Z=              0.8415  Tot=              1.5707
 Quadrupole moment (field-independent basis, Debye-Ang):
   XX=             -2.0301   YY=             -4.6460   ZZ=             -6.4334
   XY=             -0.0006   XZ=             -0.0829   YZ=             -0.0001

  Exact polarizability:  12.958  -0.002  10.883  -0.331  -0.001   9.120
 Approx polarizability:  16.031  -0.003  14.179  -0.805   0.000  10.782

                     1                      2                      3
                     A                      A                      A
 Frequencies --   792.3399               806.5849              1267.6387
 Red. masses --     1.1195                 1.1825                 1.0414
 Frc consts  --     0.4141                 0.4533                 0.9860
 IR Inten    --    65.3749                79.0401                15.7747

                     4                      5                      6
                     A                      A                      A
 Frequencies --  2108.0011              2528.6104              3203.0033
 Red. masses --     1.0336                 1.0792                 1.1081
 Frc consts  --     2.7061                 4.0655                 6.6982
 IR Inten    --   218.7146                51.2933               136.5412

 - Thermochemistry -
 -------------------
 Temperature   298.150 Kelvin.  Pressure   1.00000 Atm.
 Atom     1 has atomic number  6 and mass  12.00000

 Molecular mass:    15.02348 amu.
 Principal axes and moments of inertia in atomic units:
                           1         2         3
     Eigenvalues --     4.17446  11.07504  12.89573
           X            0.99984   0.00001   0.01804
           Y           -0.00001   1.00000  -0.00004
           Z           -0.01804   0.00004   0.99984
 This molecule is an asymmetric top.
 Rotational symmetry number  1.
 Rotational temperatures (Kelvin)     20.74851     7.82064     6.71647
 Rotational constants (GHZ):         432.32924   162.95579   139.94873
 Zero-point vibrational energy      64037.2 (Joules/Mol)
                                   15.30525 (Kcal/Mol)
 Vibrational temperatures:   1140.00  1160.49  1823.85  3032.94  3638.10
          (Kelvin)           4608.40

 Zero-point correction=                           0.024390 (Hartree/Particle)
 Thermal correction to Energy=                    0.027393
 Thermal correction to Enthalpy=                  0.028338
 Thermal correction to Gibbs Free Energy=         0.004176
 Sum of electronic and zero-point Energies=            -39.327191
 Sum of electronic and thermal Energies=               -39.324188
 Sum of electronic and thermal Enthalpies=             -39.323244
 Sum of electronic and thermal Free Energies=          -39.347405

                     E (Thermal)             CV                S
                      KCal/Mol        Cal/Mol-Kelvin    Cal/Mol-Kelvin
 Total                   17.190              7.439             50.851
 Electronic               0.000              0.000              2.183
 Translational            0.889              2.981             34.068
 Rotational               0.889              2.981             14.153
 Vibrational             15.412              1.478              0.448

 Optimization completed.
    -- Stationary point found.
 Normal termination of Gaussian 09 at Thu Jan 20 00:19:56 2005.
