 Gaussian 09, Revision B.01,
 Gaussian 09:  EM64L-G09RevB.01 12-Aug-2010

 -------------------------------------------------
 #p Temperature=298.15 opt freq UB3LYP/aug-cc-pVDZ
 -------------------------------------------------

 -----------------------------
 CH3-UB3LYP-aug-cc-pVDZ-Duplet
 -----------------------------
 Symbolic Z-matrix:
 Charge =  0 Multiplicity = 2

 SCF Done:  E(UB3LYP) =  -39.8312956250     A.U. after   10 cycles
 SCF Done:  E(UB3LYP) =  -39.8411544670     A.U. after   11 cycles
 SCF Done:  E(UB3LYP) =  -39.8438031978     A.U. after   10 cycles
 SCF Done:  E(UB3LYP) =  -39.8443140971     A.U. after   11 cycles
 SCF Done:  E(UB3LYP) =  -39.8443443438     A.U. after    8 cycles
 SCF Done:  E(UB3LYP) =  -39.8443513957     A.U. after    7 cycles
 SCF Done:  E(UB3LYP) =  -39.8443517316     A.U. after    7 cycles
 Optimization completed.
    -- Stationary point found.
 Normal termination of Gaussian 09 at Tue Mar  6 06:46:58 2018.

 ----------------------------------------------------------------------
 #P Geom=AllCheck Guess=TCheck SCRF=Check GenChk UB3LYP/Aug-CC-pVDZ Fre
 q
 ----------------------------------------------------------------------

 CH3-UB3LYP-aug-cc-pVDZ-Duplet
 -----------------------------
 Redundant internal coordinates taken from checkpoint file:
 CH3-UB3LYP-aug-cc-pVDZ-Duplet.chk
 Charge =  0 Multiplicity = 2

                         Standard orientation:
 ---------------------------------------------------------------------
 Center     Atomic      Atomic             Coordinates (Angstroms)
 Number     Number       Type             X           Y           Z
 ---------------------------------------------------------------------
      1          6           0        0.000000   -0.000011   -0.000015
      2          1           0       -0.941254   -0.545041    0.000030
      3          1           0        0.942676   -0.542578    0.000030
      4          1           0       -0.001422    1.087682    0.000030
 ---------------------------------------------------------------------

 SCF Done:  E(UB3LYP) =  -39.8443517316     A.U. after    1 cycles

 The electronic state is 2-A.
 Alpha  occ. eigenvalues --  -10.20355  -0.68977  -0.42399  -0.42397  -0.23724
 Alpha virt. eigenvalues --   -0.00643   0.02895   0.02896   0.06428   0.09907
 Alpha virt. eigenvalues --    0.09907   0.11101   0.16615   0.16616   0.16881
 Alpha virt. eigenvalues --    0.24834   0.24835   0.34194   0.34196   0.36834

  Beta  occ. eigenvalues --  -10.18952  -0.64991  -0.41418  -0.41417
  Beta virt. eigenvalues --   -0.08060  -0.00406   0.02843   0.02843   0.08451
  Beta virt. eigenvalues --    0.09846   0.09846   0.11628   0.16870   0.16870
  Beta virt. eigenvalues --    0.18640   0.25648   0.25649   0.34232   0.34234

 Mulliken atomic charges:
              1
     1  C    0.749110
     2  H   -0.249721
     3  H   -0.249721
     4  H   -0.249668
 Sum of Mulliken atomic charges =   0.00000

 Dipole moment (field-independent basis, Debye):
    X=              0.0000    Y=              0.0000    Z=              0.0001  Tot=              0.0001
 Quadrupole moment (field-independent basis, Debye-Ang):
   XX=             -7.3677   YY=             -7.3679   ZZ=             -9.2231
   XY=              0.0000   XZ=              0.0000   YZ=              0.0000

  Exact polarizability:  16.084  -0.001  16.082   0.000   0.000  16.099
 Approx polarizability:  19.397   0.000  19.397   0.000   0.000  18.118

                     1                      2                      3
                     A                      A                      A
 Frequencies --   559.9538              1381.0048              1381.1477
 Red. masses --     1.2356                 1.1021                 1.1021
 Frc consts  --     0.2283                 1.2384                 1.2386
 IR Inten    --    75.7666                 2.6325                 2.6207

                     4                      5                      6
                     A                      A                      A
 Frequencies --  3103.5063              3293.4256              3293.5930
 Red. masses --     1.0078                 1.1183                 1.1184
 Frc consts  --     5.7193                 7.1468                 7.1478
 IR Inten    --     0.0000                 4.0890                 4.0649

 - Thermochemistry -
 -------------------
 Temperature   298.150 Kelvin.  Pressure   1.00000 Atm.
 Atom     1 has atomic number  6 and mass  12.00000

 Molecular mass:    15.02348 amu.
 Principal axes and moments of inertia in atomic units:
                           1         2         3
     Eigenvalues --     6.38649   6.38680  12.77328
           X            1.00000   0.00000   0.00000
           Y            0.00000   1.00000   0.00000
           Z            0.00000   0.00000   1.00000
 This molecule is an asymmetric top.
 Rotational symmetry number  1.
 Rotational temperatures (Kelvin)     13.56205    13.56138     6.78086
 Rotational constants (GHZ):         282.58752   282.57366   141.29030
 Zero-point vibrational energy      77832.8 (Joules/Mol)
                                   18.60249 (Kcal/Mol)
 Warning -- explicit consideration of   1 degrees of freedom as
           vibrations may cause significant error
 Vibrational temperatures:    805.65  1986.96  1987.16  4465.25  4738.50
          (Kelvin)           4738.74

 Zero-point correction=                           0.029645 (Hartree/Particle)
 Thermal correction to Energy=                    0.032677
 Thermal correction to Enthalpy=                  0.033621
 Thermal correction to Gibbs Free Energy=         0.009852
 Sum of electronic and zero-point Energies=            -39.814707
 Sum of electronic and thermal Energies=               -39.811675
 Sum of electronic and thermal Enthalpies=             -39.810731
 Sum of electronic and thermal Free Energies=          -39.834500

                     E (Thermal)             CV                S
                      KCal/Mol        Cal/Mol-Kelvin    Cal/Mol-Kelvin
 Total                   20.505              7.306             50.027
 Electronic               0.000              0.000              1.377
 Translational            0.889              2.981             34.068
 Rotational               0.889              2.981             14.019
 Vibrational             18.728              1.344              0.563
 Vibration     1          0.916              1.118              0.524

 Optimization completed.
    -- Stationary point found.
 Normal termination of Gaussian 09 at Tue Mar  6 06:47:02 2018.
