 Gaussian 09, Revision B.01,
 Gaussian 09:  EM64L-G09RevB.01 12-Aug-2010

 -------------------------------------------------
 #p Temperature=298.15 opt freq UB3LYP/aug-cc-pVDZ
 -------------------------------------------------

 ----------------------------------
 CH3-N2+-UB3LYP-aug-cc-pVDZ-Singlet
 ----------------------------------
 Symbolic Z-matrix:
 Charge =  1 Multiplicity = 1

 SCF Done:  E(UB3LYP) =  -149.061506586     A.U. after   11 cycles
 SCF Done:  E(UB3LYP) =  -149.099500588     A.U. after   11 cycles
 SCF Done:  E(UB3LYP) =  -149.099758242     A.U. after    8 cycles
 SCF Done:  E(UB3LYP) =  -149.099797877     A.U. after    9 cycles
 SCF Done:  E(UB3LYP) =  -149.099805479     A.U. after   11 cycles
 SCF Done:  E(UB3LYP) =  -149.099805747     A.U. after   12 cycles
 SCF Done:  E(UB3LYP) =  -149.099806588     A.U. after   12 cycles
 Optimization completed.
    -- Stationary point found.
 Normal termination of Gaussian 09 at Tue Mar  6 04:30:57 2018.

 ----------------------------------------------------------------------
 #P Geom=AllCheck Guess=TCheck SCRF=Check GenChk UB3LYP/Aug-CC-pVDZ Fre
 q
 ----------------------------------------------------------------------

 CH3-N2+-UB3LYP-aug-cc-pVDZ-Singlet
 ----------------------------------
 Redundant internal coordinates taken from checkpoint file:
 CH3-N2+-UB3LYP-aug-cc-pVDZ-Singlet.chk
 Charge =  1 Multiplicity = 1

                         Standard orientation:
 ---------------------------------------------------------------------
 Center     Atomic      Atomic             Coordinates (Angstroms)
 Number     Number       Type             X           Y           Z
 ---------------------------------------------------------------------
      1          6           0        1.181739    0.000000   -0.000016
      2          1           0        1.489060   -0.913547   -0.527693
      3          1           0        1.489060    0.913836   -0.527193
      4          1           0        1.489048   -0.000289    1.054994
      5          7           0       -0.274073    0.000000   -0.000006
      6          7           0       -1.377013    0.000000    0.000005
 ---------------------------------------------------------------------

 SCF Done:  E(UB3LYP) =  -149.099806588     A.U. after    1 cycles

 The electronic state is 1-A.
 Alpha  occ. eigenvalues --  -14.78295 -14.75813 -10.53096  -1.44404  -1.11838
 Alpha  occ. eigenvalues --   -0.85086  -0.79901  -0.79900  -0.74620  -0.68488
 Alpha  occ. eigenvalues --   -0.68486
 Alpha virt. eigenvalues --   -0.32639  -0.32638  -0.20038  -0.16815  -0.12921
 Alpha virt. eigenvalues --   -0.12920  -0.12144  -0.09404  -0.09403  -0.06841
 Alpha virt. eigenvalues --   -0.05899  -0.05898  -0.03458  -0.01965  -0.01965

  Beta  occ. eigenvalues --  -14.78295 -14.75813 -10.53096  -1.44404  -1.11838
  Beta  occ. eigenvalues --   -0.85086  -0.79901  -0.79900  -0.74620  -0.68488
  Beta  occ. eigenvalues --   -0.68486
  Beta virt. eigenvalues --   -0.32639  -0.32638  -0.20038  -0.16815  -0.12921
  Beta virt. eigenvalues --   -0.12920  -0.12144  -0.09404  -0.09403  -0.06841
  Beta virt. eigenvalues --   -0.05899  -0.05898  -0.03458  -0.01965  -0.01965

 Mulliken atomic charges:
              1
     1  C    1.092995
     2  H   -0.069305
     3  H   -0.069305
     4  H   -0.069180
     5  N    0.404887
     6  N   -0.290092
 Sum of Mulliken atomic charges =   1.00000

 Dipole moment (field-independent basis, Debye):
    X=              2.3053    Y=              0.0000    Z=              0.0001  Tot=              2.3053
 Quadrupole moment (field-independent basis, Debye-Ang):
   XX=             -9.0112   YY=            -14.1788   ZZ=            -14.1793
   XY=              0.0000   XZ=              0.0001   YZ=              0.0000

  Exact polarizability:  32.482   0.000  17.720   0.000   0.000  17.720
 Approx polarizability:  55.041   0.000  24.247   0.000   0.000  24.247

                     1                      2                      3
                     A                      A                      A
 Frequencies --   360.3775               360.3857               759.4411
 Red. masses --     4.5065                 4.5061                 8.0239
 Frc consts  --     0.3448                 0.3448                 2.7266
 IR Inten    --     0.4468                 0.4476                 1.9537

                     4                      5                      6
                     A                      A                      A
 Frequencies --  1121.2484              1121.3780              1397.2242
 Red. masses --     1.3640                 1.3638                 1.1162
 Frc consts  --     1.0103                 1.0105                 1.2839
 IR Inten    --     2.2499                 2.2368                 6.7555

                     7                      8                      9
                     A                      A                      A
 Frequencies --  1412.7990              1412.8249              2461.4740
 Red. masses --     1.0344                 1.0344                13.1049
 Frc consts  --     1.2164                 1.2165                46.7817
 IR Inten    --    28.1037                28.0990                 0.9470

                    10                     11                     12
                     A                      A                      A
 Frequencies --  3041.8481              3158.3681              3158.5295
 Red. masses --     1.0263                 1.1098                 1.1099
 Frc consts  --     5.5951                 6.5227                 6.5237
 IR Inten    --    52.9930                39.9171                39.9263

 - Thermochemistry -
 -------------------
 Temperature   298.150 Kelvin.  Pressure   1.00000 Atm.
 Atom     1 has atomic number  6 and mass  12.00000

 Molecular mass:    43.02962 amu.
 Principal axes and moments of inertia in atomic units:
                           1         2         3
     Eigenvalues --    12.01734 186.73415 186.73509
           X            1.00000   0.00000   0.00000
           Y            0.00000   1.00000   0.00000
           Z            0.00000   0.00000   1.00000
 This molecule is an asymmetric top.
 Rotational symmetry number  1.
 Rotational temperatures (Kelvin)      7.20740     0.46383     0.46383
 Rotational constants (GHZ):         150.17807     9.66476     9.66471
 Zero-point vibrational energy     118226.3 (Joules/Mol)
                                   28.25677 (Kcal/Mol)
 Warning -- explicit consideration of   2 degrees of freedom as
           vibrations may cause significant error
 Vibrational temperatures:    518.50   518.51  1092.66  1613.22  1613.41
          (Kelvin)           2010.29  2032.70  2032.74  3541.51  4376.54
                             4544.18  4544.41

 Zero-point correction=                           0.045030 (Hartree/Particle)
 Thermal correction to Energy=                    0.048721
 Thermal correction to Enthalpy=                  0.049665
 Thermal correction to Gibbs Free Energy=         0.020910
 Sum of electronic and zero-point Energies=           -149.054777
 Sum of electronic and thermal Energies=              -149.051086
 Sum of electronic and thermal Enthalpies=            -149.050141
 Sum of electronic and thermal Free Energies=         -149.078897

                     E (Thermal)             CV                S
                      KCal/Mol        Cal/Mol-Kelvin    Cal/Mol-Kelvin
 Total                   30.573             10.626             60.521
 Electronic               0.000              0.000              0.000
 Translational            0.889              2.981             37.204
 Rotational               0.889              2.981             20.666
 Vibrational             28.795              4.664              2.651
 Vibration     1          0.735              1.554              1.120
 Vibration     2          0.735              1.554              1.120

 Optimization completed.
    -- Stationary point found.
 Normal termination of Gaussian 09 at Tue Mar  6 04:31:16 2018.
