 Gaussian 09, Revision B.01,
 Gaussian 09:  EM64L-G09RevB.01 12-Aug-2010

 ----------------------------------------------------------------------
 #p Temperature=298.15 opt=(maxcycles=4096) SCF=(maxcycles=1024) freq U
 B3LYP/aug-cc-pVDZ
 ----------------------------------------------------------------------

 --------------------------------
 CH3-N2-UB3LYP-aug-cc-pVDZ-Duplet
 --------------------------------
 Symbolic Z-matrix:
 Charge =  0 Multiplicity = 2

 SCF Done:  E(UB3LYP) =  -149.166911545     A.U. after   34 cycles
 SCF Done:  E(UB3LYP) =  -149.258320513     A.U. after   25 cycles
 SCF Done:  E(UB3LYP) =  -149.317453764     A.U. after   19 cycles
 SCF Done:  E(UB3LYP) =  -149.341539071     A.U. after   17 cycles
 SCF Done:  E(UB3LYP) =  -149.360193073     A.U. after   15 cycles
 SCF Done:  E(UB3LYP) =  -149.368109447     A.U. after   15 cycles
 SCF Done:  E(UB3LYP) =  -149.369014510     A.U. after   13 cycles
 SCF Done:  E(UB3LYP) =  -149.369181019     A.U. after   13 cycles
 SCF Done:  E(UB3LYP) =  -149.369258954     A.U. after   13 cycles
 SCF Done:  E(UB3LYP) =  -149.369335156     A.U. after   14 cycles
 SCF Done:  E(UB3LYP) =  -149.338350159     A.U. after   17 cycles
 SCF Done:  E(UB3LYP) =  -149.369878174     A.U. after   16 cycles
 SCF Done:  E(UB3LYP) =  -149.343645165     A.U. after   17 cycles
 SCF Done:  E(UB3LYP) =  -149.370111875     A.U. after   16 cycles
 SCF Done:  E(UB3LYP) =  -149.370418184     A.U. after   15 cycles
 SCF Done:  E(UB3LYP) =  -149.368933391     A.U. after   15 cycles
 SCF Done:  E(UB3LYP) =  -149.370453106     A.U. after   15 cycles
 SCF Done:  E(UB3LYP) =  -149.370511487     A.U. after   15 cycles
 SCF Done:  E(UB3LYP) =  -149.370520400     A.U. after   15 cycles
 Optimization completed.
    -- Stationary point found.
 Normal termination of Gaussian 09 at Fri Apr 13 20:06:48 2018.

 ----------------------------------------------------------------------
 #P Geom=AllCheck Guess=TCheck SCRF=Check GenChk UB3LYP/Aug-CC-pVDZ Fre
 q
 ----------------------------------------------------------------------

 CH3-N2-UB3LYP-aug-cc-pVDZ-Duplet
 --------------------------------
 Redundant internal coordinates taken from checkpoint file:
 /home/ubuntu/g09/Gau-29598.chk
 Charge =  0 Multiplicity = 2

                         Standard orientation:
 ---------------------------------------------------------------------
 Center     Atomic      Atomic             Coordinates (Angstroms)
 Number     Number       Type             X           Y           Z
 ---------------------------------------------------------------------
      1          6           0        1.103013    0.118251    0.000000
      2          1           0        1.601642   -0.274568    0.893223
      3          1           0        1.602092   -0.275385   -0.892725
      4          1           0        1.083086    1.215187   -0.000453
      5          7           0       -0.299184   -0.438949    0.000007
      6          7           0       -1.258658    0.242558   -0.000013
 ---------------------------------------------------------------------

 SCF Done:  E(UB3LYP) =  -149.370520400     A.U. after    1 cycles

 The electronic state is 2-A.
 Alpha  occ. eigenvalues --  -14.42053 -14.39971 -10.24723  -1.07439  -0.78380
 Alpha  occ. eigenvalues --   -0.58434  -0.49145  -0.48046  -0.44858  -0.39254
 Alpha  occ. eigenvalues --   -0.38989  -0.20722
 Alpha virt. eigenvalues --   -0.04448  -0.01071   0.02016   0.02075   0.02986
 Alpha virt. eigenvalues --    0.07336   0.08532   0.08736   0.09920   0.10265
 Alpha virt. eigenvalues --    0.11859   0.13352   0.13441   0.16273   0.16762

  Beta  occ. eigenvalues --  -14.41713 -14.38492 -10.24319  -1.05701  -0.76865
  Beta  occ. eigenvalues --   -0.56555  -0.47653  -0.46792  -0.42384  -0.38259
  Beta  occ. eigenvalues --   -0.36114
  Beta virt. eigenvalues --   -0.07365  -0.03269  -0.00643   0.02091   0.02098
  Beta virt. eigenvalues --    0.03116   0.07522   0.08570   0.08721   0.10076
  Beta virt. eigenvalues --    0.10524   0.11869   0.13450   0.13706   0.16608

 Mulliken atomic charges:
              1
     1  C    1.084602
     2  H   -0.208750
     3  H   -0.208574
     4  H   -0.239452
     5  N   -0.028536
     6  N   -0.399290
 Sum of Mulliken atomic charges =   0.00000

 Dipole moment (field-independent basis, Debye):
    X=              2.6624    Y=              0.2314    Z=              0.0001  Tot=              2.6724
 Quadrupole moment (field-independent basis, Debye-Ang):
   XX=            -19.4190   YY=            -19.3963   ZZ=            -17.5408
   XY=              0.3593   XZ=              0.0000   YZ=              0.0002

  Exact polarizability:  39.889  -1.740  28.374   0.000   0.000  23.491
 Approx polarizability:  55.852  -7.377  39.896   0.000   0.000  31.999

                     1                      2                      3
                     A                      A                      A
 Frequencies --   146.7659               455.5950               753.0137
 Red. masses --     1.5596                 4.3719                 7.6321
 Frc consts  --     0.0198                 0.5347                 2.5498
 IR Inten    --     0.5087                10.0800                 3.2965

                     4                      5                      6
                     A                      A                      A
 Frequencies --  1035.1805              1078.5527              1362.2378
 Red. masses --     1.2613                 1.3319                 1.1409
 Frc consts  --     0.7963                 0.9129                 1.2474
 IR Inten    --     0.8796                 6.7260                 2.3978

                     7                      8                      9
                     A                      A                      A
 Frequencies --  1442.6660              1443.9489              1895.5344
 Red. masses --     1.0486                 1.0505                12.6203
 Frc consts  --     1.2859                 1.2905                26.7168
 IR Inten    --     9.5655                16.3475                19.7055

                    10                     11                     12
                     A                      A                      A
 Frequencies --  3044.6195              3153.5613              3154.8955
 Red. masses --     1.0283                 1.1085                 1.1054
 Frc consts  --     5.6163                 6.4949                 6.4826
 IR Inten    --    11.8437                 8.8826                 4.4372

 - Thermochemistry -
 -------------------
 Temperature   298.150 Kelvin.  Pressure   1.00000 Atm.
 Atom     1 has atomic number  6 and mass  12.00000

 Molecular mass:    43.02962 amu.
 Principal axes and moments of inertia in atomic units:
                           1         2         3
     Eigenvalues --    24.71569 162.78246 176.01872
           X            0.99992   0.01287   0.00000
           Y           -0.01287   0.99992   0.00001
           Z            0.00000  -0.00001   1.00000
 This molecule is an asymmetric top.
 Rotational symmetry number  1.
 Rotational temperatures (Kelvin)      3.50441     0.53208     0.49207
 Rotational constants (GHZ):          73.02005    11.08683    10.25312
 Zero-point vibrational energy     113445.3 (Joules/Mol)
                                   27.11407 (Kcal/Mol)
 Warning -- explicit consideration of   2 degrees of freedom as
           vibrations may cause significant error
 Vibrational temperatures:    211.16   655.50  1083.42  1489.39  1551.79
          (Kelvin)           1959.95  2075.67  2077.52  2727.25  4380.52
                             4537.27  4539.19

 Zero-point correction=                           0.043209 (Hartree/Particle)
 Thermal correction to Energy=                    0.047124
 Thermal correction to Enthalpy=                  0.048068
 Thermal correction to Gibbs Free Energy=         0.017796
 Sum of electronic and zero-point Energies=           -149.327311
 Sum of electronic and thermal Energies=              -149.323396
 Sum of electronic and thermal Enthalpies=            -149.322452
 Sum of electronic and thermal Free Energies=         -149.352724

                     E (Thermal)             CV                S
                      KCal/Mol        Cal/Mol-Kelvin    Cal/Mol-Kelvin
 Total                   29.571             10.907             63.713
 Electronic               0.000              0.000              1.377
 Translational            0.889              2.981             37.204
 Rotational               0.889              2.981             21.187
 Vibrational             27.793              4.946              3.944
 Vibration     1          0.617              1.906              2.714
 Vibration     2          0.814              1.349              0.779

 Optimization completed.
    -- Stationary point found.
 Normal termination of Gaussian 09 at Fri Apr 13 20:07:08 2018.
