 Gaussian 09, Revision B.01,
 Gaussian 09:  EM64L-G09RevB.01 12-Aug-2010

 -------------------------------------------------
 #p Temperature=298.15 opt freq UB3LYP/aug-cc-pVDZ
 -------------------------------------------------

 ----------------------------------
 CH3-N2+-UB3LYP-aug-cc-pVDZ-Triplet
 ----------------------------------
 Symbolic Z-matrix:
 Charge =  1 Multiplicity = 3

 SCF Done:  E(UB3LYP) =  -148.878651322     A.U. after   63 cycles
 SCF Done:  E(UB3LYP) =  -148.887820324     A.U. after   33 cycles
 SCF Done:  E(UB3LYP) =  -148.889877578     A.U. after   23 cycles
 SCF Done:  E(UB3LYP) =  -148.868720800     A.U. after   20 cycles
 SCF Done:  E(UB3LYP) =  -148.890730034     A.U. after   21 cycles
 SCF Done:  E(UB3LYP) =  -148.888816114     A.U. after   23 cycles
 SCF Done:  E(UB3LYP) =  -148.896041683     A.U. after   21 cycles
 SCF Done:  E(UB3LYP) =  -148.903711414     A.U. after   23 cycles
 SCF Done:  E(UB3LYP) =  -148.880874640     A.U. after   17 cycles
 SCF Done:  E(UB3LYP) =  -148.912248182     A.U. after   19 cycles
 SCF Done:  E(UB3LYP) =  -148.913355692     A.U. after   20 cycles
 SCF Done:  E(UB3LYP) =  -148.916911310     A.U. after   19 cycles
 SCF Done:  E(UB3LYP) =  -148.914775273     A.U. after   16 cycles
 SCF Done:  E(UB3LYP) =  -148.917810015     A.U. after   17 cycles
 SCF Done:  E(UB3LYP) =  -148.918171731     A.U. after   19 cycles
 SCF Done:  E(UB3LYP) =  -148.918550365     A.U. after   16 cycles
 SCF Done:  E(UB3LYP) =  -148.918586115     A.U. after   18 cycles
 SCF Done:  E(UB3LYP) =  -148.918595157     A.U. after   19 cycles
 Optimization completed.
    -- Stationary point found.
 Normal termination of Gaussian 09 at Thu Jan 20 22:38:30 2005.

 ----------------------------------------------------------------------
 #P Geom=AllCheck Guess=TCheck SCRF=Check GenChk UB3LYP/Aug-CC-pVDZ Fre
 q
 ----------------------------------------------------------------------

 CH3-N2+-UB3LYP-aug-cc-pVDZ-Triplet
 ----------------------------------
 Redundant internal coordinates taken from checkpoint file:
 CH3-N2+-UB3LYP-aug-cc-pVDZ-Triplet.chk
 Charge =  1 Multiplicity = 3

                         Standard orientation:
 ---------------------------------------------------------------------
 Center     Atomic      Atomic             Coordinates (Angstroms)
 Number     Number       Type             X           Y           Z
 ---------------------------------------------------------------------
      1          6           0       -1.065907    0.082649    0.002439
      2          1           0       -1.592289   -0.138863   -0.946965
      3          1           0       -1.587058   -0.140587    0.952139
      4          1           0       -0.966463    1.241632   -0.009072
      5          7           0        0.229744   -0.429370   -0.003248
      6          7           0        1.276149    0.221073    0.001714
 ---------------------------------------------------------------------

 SCF Done:  E(UB3LYP) =  -148.918595157     A.U. after    1 cycles

 The electronic state is 3-A.
 Alpha  occ. eigenvalues --  -14.76795 -14.74188 -10.54634  -1.38806  -1.11333
 Alpha  occ. eigenvalues --   -0.89840  -0.80532  -0.78434  -0.75379  -0.68119
 Alpha  occ. eigenvalues --   -0.67241  -0.54061
 Alpha virt. eigenvalues --   -0.36485  -0.19115  -0.16706  -0.14767  -0.13532
 Alpha virt. eigenvalues --   -0.11817  -0.09678  -0.09405  -0.06430  -0.05657
 Alpha virt. eigenvalues --   -0.04441  -0.03411  -0.02420  -0.01613  -0.00693

  Beta  occ. eigenvalues --  -14.75439 -14.71971 -10.54201  -1.34490  -1.08259
  Beta  occ. eigenvalues --   -0.85523  -0.77399  -0.72990  -0.70355  -0.65667
  Beta virt. eigenvalues --   -0.54132  -0.34675  -0.34109  -0.18428  -0.14890
  Beta virt. eigenvalues --   -0.14222  -0.13383  -0.11374  -0.09233  -0.08749
  Beta virt. eigenvalues --   -0.05838  -0.05539  -0.03996  -0.02951  -0.02308

 Mulliken atomic charges:
              1
     1  C    0.881960
     2  H   -0.038697
     3  H   -0.044601
     4  H    0.089021
     5  N    0.157687
     6  N   -0.045370
 Sum of Mulliken atomic charges =   1.00000

 Dipole moment (field-independent basis, Debye):
    X=             -3.0011    Y=              0.5178    Z=             -0.0191  Tot=              3.0455
 Quadrupole moment (field-independent basis, Debye-Ang):
   XX=             -9.1770   YY=            -14.2848   ZZ=            -14.1975
   XY=             -1.3864   XZ=              0.0167   YZ=             -0.0203

  Exact polarizability:  43.589  -2.862  22.932   0.097  -0.010  20.667
 Approx polarizability:  76.762  -2.534  37.198   0.196  -0.003  27.416

                     1                      2                      3
                     A                      A                      A
 Frequencies --   195.2228               432.1765               572.7751
 Red. masses --     1.6743                 2.6155                 1.1671
 Frc consts  --     0.0376                 0.2878                 0.2256
 IR Inten    --    24.1410                 6.4377               166.5569

                     4                      5                      6
                     A                      A                      A
 Frequencies --   825.6163              1054.2434              1086.4859
 Red. masses --     1.5844                 4.3911                 1.2348
 Frc consts  --     0.6363                 2.8754                 0.8588
 IR Inten    --    32.5575               105.9131               233.9644

                     7                      8                      9
                     A                      A                      A
 Frequencies --  1113.5707              1374.4590              1711.7969
 Red. masses --     1.1309                 1.1990                 8.5086
 Frc consts  --     0.8262                 1.3345                14.6896
 IR Inten    --    29.5505                 9.2967                60.3495

                    10                     11                     12
                     A                      A                      A
 Frequencies --  2408.4225              2962.3041              3025.7801
 Red. masses --     1.0670                 1.0464                 1.0968
 Frc consts  --     3.6467                 5.4102                 5.9164
 IR Inten    --   459.0398               140.0647               143.4108

 - Thermochemistry -
 -------------------
 Temperature   298.150 Kelvin.  Pressure   1.00000 Atm.
 Atom     1 has atomic number  6 and mass  12.00000

 Molecular mass:    43.02962 amu.
 Principal axes and moments of inertia in atomic units:
                           1         2         3
     Eigenvalues --    23.99351 159.46643 170.47767
           X            0.99975  -0.02220   0.00023
           Y            0.02220   0.99974  -0.00445
           Z           -0.00013   0.00445   0.99999
 This molecule is an asymmetric top.
 Rotational symmetry number  1.
 Rotational temperatures (Kelvin)      3.60989     0.54315     0.50807
 Rotational constants (GHZ):          75.21789    11.31737    10.58638
 Zero-point vibrational energy     100264.1 (Joules/Mol)
                                   23.96370 (Kcal/Mol)
 Warning -- explicit consideration of   3 degrees of freedom as
           vibrations may cause significant error
 Vibrational temperatures:    280.88   621.80   824.09  1187.88  1516.82
          (Kelvin)           1563.21  1602.18  1977.54  2462.89  3465.18
                             4262.09  4353.42

 Zero-point correction=                           0.038189 (Hartree/Particle)
 Thermal correction to Energy=                    0.042206
 Thermal correction to Enthalpy=                  0.043150
 Thermal correction to Gibbs Free Energy=         0.012536
 Sum of electronic and zero-point Energies=           -148.880407
 Sum of electronic and thermal Energies=              -148.876389
 Sum of electronic and thermal Enthalpies=            -148.875445
 Sum of electronic and thermal Free Energies=         -148.906060

                     E (Thermal)             CV                S
                      KCal/Mol        Cal/Mol-Kelvin    Cal/Mol-Kelvin
 Total                   26.485             11.943             64.434
 Electronic               0.000              0.000              2.183
 Translational            0.889              2.981             37.204
 Rotational               0.889              2.981             21.105
 Vibrational             24.707              5.981              3.941
 Vibration     1          0.636              1.847              2.178
 Vibration     2          0.793              1.400              0.852
 Vibration     3          0.929              1.090              0.499

 Normal termination of Gaussian 09 at Thu Jan 20 22:38:50 2005.
