 Gaussian 09, Revision B.01,
 Gaussian 09:  EM64L-G09RevB.01 12-Aug-2010

 -------------------------------------------------
 #p Temperature=298.15 opt freq UB3LYP/aug-cc-pVDZ
 -------------------------------------------------

 -----------------------------------
 Furan-3+-UB3LYP-aug-cc-pVDZ-Triplet
 -----------------------------------
 Symbolic Z-matrix:
 Charge =  1 Multiplicity = 3

 SCF Done:  E(UB3LYP) =  -229.008352181     A.U. after   16 cycles
 SCF Done:  E(UB3LYP) =  -229.023522712     A.U. after   16 cycles
 SCF Done:  E(UB3LYP) =  -229.025301208     A.U. after   16 cycles
 SCF Done:  E(UB3LYP) =  -229.025296105     A.U. after   16 cycles
 SCF Done:  E(UB3LYP) =  -229.025380841     A.U. after   13 cycles
 SCF Done:  E(UB3LYP) =  -229.025414123     A.U. after   16 cycles
 SCF Done:  E(UB3LYP) =  -229.025416299     A.U. after   16 cycles
 Optimization completed.
    -- Stationary point found.
 Normal termination of Gaussian 09 at Thu Jan 20 23:41:45 2005.

 ----------------------------------------------------------------------
 #P Geom=AllCheck Guess=TCheck SCRF=Check GenChk UB3LYP/Aug-CC-pVDZ Fre
 q
 ----------------------------------------------------------------------

 Furan-3+-UB3LYP-aug-cc-pVDZ-Triplet
 -----------------------------------
 Redundant internal coordinates taken from checkpoint file:
 Furan-3+-UB3LYP-aug-cc-pVDZ-Triplet.chk
 Charge =  1 Multiplicity = 3

                         Standard orientation:
 ---------------------------------------------------------------------
 Center     Atomic      Atomic             Coordinates (Angstroms)
 Number     Number       Type             X           Y           Z
 ---------------------------------------------------------------------
      1          6           0       -0.127966   -1.232558   -0.000057
      2          6           0       -1.199023   -0.370058    0.000050
      3          1           0       -2.266390   -0.577631    0.000220
      4          6           0       -0.594515    0.906616   -0.000131
      5          1           0       -1.006436    1.915018    0.000003
      6          6           0        1.080850   -0.489703    0.000020
      7          1           0        2.133313   -0.768704   -0.000115
      8          8           0        0.772930    0.818192    0.000075
 ---------------------------------------------------------------------

 SCF Done:  E(UB3LYP) =  -229.025416299     A.U. after    1 cycles

 The electronic state is 3-A.
 Alpha  occ. eigenvalues --  -19.49037 -10.55514 -10.54586 -10.50200 -10.46389
 Alpha  occ. eigenvalues --   -1.40156  -1.08861  -1.02981  -0.86406  -0.84420
 Alpha  occ. eigenvalues --   -0.78929  -0.73453  -0.70808  -0.68127  -0.64491
 Alpha  occ. eigenvalues --   -0.55949  -0.54334  -0.52402
 Alpha virt. eigenvalues --   -0.28987  -0.20867  -0.15625  -0.14133  -0.12916
 Alpha virt. eigenvalues --   -0.11820  -0.11051  -0.10706  -0.09627  -0.06508
 Alpha virt. eigenvalues --   -0.05813  -0.05243  -0.04677  -0.03517  -0.02746

  Beta  occ. eigenvalues --  -19.49089 -10.54640 -10.53710 -10.48321 -10.46397
  Beta  occ. eigenvalues --   -1.39504  -1.06850  -1.00368  -0.84951  -0.82593
  Beta  occ. eigenvalues --   -0.77144  -0.71232  -0.69903  -0.67318  -0.63644
  Beta  occ. eigenvalues --   -0.54246
  Beta virt. eigenvalues --   -0.41018  -0.35844  -0.24443  -0.17054  -0.15421
  Beta virt. eigenvalues --   -0.13422  -0.12702  -0.11548  -0.10294  -0.10113
  Beta virt. eigenvalues --   -0.09180  -0.06024  -0.04989  -0.04962  -0.04016

 Mulliken atomic charges:
              1
     1  C   -0.072236
     2  C    1.239372
     3  H   -0.321648
     4  C    0.497047
     5  H   -0.406327
     6  C    0.629505
     7  H   -0.327347
     8  O   -0.238367
 Sum of Mulliken atomic charges =   1.00000

 Dipole moment (field-independent basis, Debye):
    X=             -0.5596    Y=             -0.1743    Z=              0.0000  Tot=              0.5861
 Quadrupole moment (field-independent basis, Debye-Ang):
   XX=            -14.7677   YY=            -20.3973   ZZ=            -26.8807
   XY=             -3.7717   XZ=             -0.0008   YZ=             -0.0003

  Exact polarizability:  49.504  -4.783  44.687   0.000   0.000  25.466
 Approx polarizability:  79.470  -8.306  77.225   0.001  -0.001  37.388

                     1                      2                      3
                     A                      A                      A
 Frequencies --   484.1603               500.2328               762.5035
 Red. masses --     2.6263                 2.3757                 9.6701
 Frc consts  --     0.3627                 0.3503                 3.3126
 IR Inten    --     5.4245                33.9886                21.1670

                     4                      5                      6
                     A                      A                      A
 Frequencies --   816.2165               848.8661               855.8174
 Red. masses --     1.3287                 1.6236                 6.1368
 Frc consts  --     0.5215                 0.6893                 2.6482
 IR Inten    --    34.0094                 4.2061                26.2333

                     7                      8                      9
                     A                      A                      A
 Frequencies --   898.1780               979.7334               996.2808
 Red. masses --     1.5231                 7.9067                 1.6740
 Frc consts  --     0.7239                 4.4716                 0.9789
 IR Inten    --     3.2547                 6.0648                26.0338

                    10                     11                     12
                     A                      A                      A
 Frequencies --  1082.7356              1154.1301              1228.6119
 Red. masses --     1.7179                 4.6270                 1.3629
 Frc consts  --     1.1866                 3.6313                 1.2121
 IR Inten    --    36.4090                 0.9029                 7.7269

                    13                     14                     15
                     A                      A                      A
 Frequencies --  1334.2807              1429.7109              1477.8839
 Red. masses --     2.0528                 3.0243                 4.4454
 Frc consts  --     2.1532                 3.6423                 5.7207
 IR Inten    --   119.2704                35.5366                 6.2808

                    16                     17                     18
                     A                      A                      A
 Frequencies --  3246.8860              3257.2297              3263.1452
 Red. masses --     1.0941                 1.0989                 1.1074
 Frc consts  --     6.7959                 6.8692                 6.9475
 IR Inten    --    35.9962                95.9272                 4.2462

 - Thermochemistry -
 -------------------
 Temperature   298.150 Kelvin.  Pressure   1.00000 Atm.
 Atom     1 has atomic number  6 and mass  12.00000

 Molecular mass:    67.01839 amu.
 Principal axes and moments of inertia in atomic units:
                           1         2         3
     Eigenvalues --   169.13613 202.16513 371.30126
           X            0.96800  -0.25095  -0.00001
           Y            0.25095   0.96800   0.00000
           Z            0.00001   0.00000   1.00000
 This molecule is an asymmetric top.
 Rotational symmetry number  1.
 Rotational temperatures (Kelvin)      0.51210     0.42843     0.23327
 Rotational constants (GHZ):          10.67035     8.92706     4.86058
 Zero-point vibrational energy     147240.0 (Joules/Mol)
                                   35.19120 (Kcal/Mol)
 Warning -- explicit consideration of   2 degrees of freedom as
           vibrations may cause significant error
 Vibrational temperatures:    696.60   719.72  1097.07  1174.35  1221.33
          (Kelvin)           1231.33  1292.28  1409.62  1433.42  1557.81
                             1660.53  1767.70  1919.73  2057.03  2126.34
                             4671.54  4686.42  4694.93

 Zero-point correction=                           0.056081 (Hartree/Particle)
 Thermal correction to Energy=                    0.059881
 Thermal correction to Enthalpy=                  0.060826
 Thermal correction to Gibbs Free Energy=         0.028785
 Sum of electronic and zero-point Energies=           -228.969336
 Sum of electronic and thermal Energies=              -228.965535
 Sum of electronic and thermal Enthalpies=            -228.964591
 Sum of electronic and thermal Free Energies=         -228.996631

                     E (Thermal)             CV                S
                      KCal/Mol        Cal/Mol-Kelvin    Cal/Mol-Kelvin
 Total                   37.576             13.283             67.435
 Electronic               0.000              0.000              2.183
 Translational            0.889              2.981             38.525
 Rotational               0.889              2.981             24.055
 Vibrational             35.799              7.322              2.672
 Vibration     1          0.840              1.285              0.699
 Vibration     2          0.856              1.249              0.658

 Optimization completed.
    -- Stationary point found.
 Normal termination of Gaussian 09 at Thu Jan 20 23:42:55 2005.
