 Gaussian 09, Revision B.01,
 Gaussian 09:  EM64L-G09RevB.01 12-Aug-2010

 -------------------------------------------------
 #p Temperature=298.15 opt freq UB3LYP/aug-cc-pVDZ
 -------------------------------------------------

 -----------------------------------
 Furan-3+-UB3LYP-aug-cc-pVDZ-Singlet
 -----------------------------------
 Symbolic Z-matrix:
 Charge =  1 Multiplicity = 1

 SCF Done:  E(UB3LYP) =  -228.959607867     A.U. after   19 cycles
 SCF Done:  E(UB3LYP) =  -228.988898473     A.U. after   14 cycles
 SCF Done:  E(UB3LYP) =  -228.997508746     A.U. after   14 cycles
 SCF Done:  E(UB3LYP) =  -228.998758725     A.U. after   13 cycles
 SCF Done:  E(UB3LYP) =  -228.999255467     A.U. after   13 cycles
 SCF Done:  E(UB3LYP) =  -228.999324764     A.U. after   15 cycles
 SCF Done:  E(UB3LYP) =  -228.999337586     A.U. after   11 cycles
 SCF Done:  E(UB3LYP) =  -228.999341212     A.U. after   11 cycles
 SCF Done:  E(UB3LYP) =  -228.999342342     A.U. after   10 cycles
 Optimization completed.
    -- Stationary point found.
 Normal termination of Gaussian 09 at Tue Mar  6 04:58:59 2018.

 ----------------------------------------------------------------------
 #P Geom=AllCheck Guess=TCheck SCRF=Check GenChk UB3LYP/Aug-CC-pVDZ Fre
 q
 ----------------------------------------------------------------------

 Furan-3+-UB3LYP-aug-cc-pVDZ-Singlet
 -----------------------------------
 Redundant internal coordinates taken from checkpoint file:
 Furan-3+-UB3LYP-aug-cc-pVDZ-Singlet.chk
 Charge =  1 Multiplicity = 1

                         Standard orientation:
 ---------------------------------------------------------------------
 Center     Atomic      Atomic             Coordinates (Angstroms)
 Number     Number       Type             X           Y           Z
 ---------------------------------------------------------------------
      1          6           0       -0.124988   -1.110459    0.180575
      2          6           0       -1.239379   -0.378514   -0.143710
      3          1           0       -2.302817   -0.553193   -0.000481
      4          6           0       -0.598872    0.860243   -0.025693
      5          1           0       -1.027604    1.799068    0.327099
      6          6           0        1.098159   -0.501684   -0.047690
      7          1           0        2.114523   -0.844738   -0.220917
      8          8           0        0.800798    0.797669    0.014175
 ---------------------------------------------------------------------

 SCF Done:  E(UB3LYP) =  -228.999342342     A.U. after    1 cycles

 The electronic state is 1-A.
 Alpha  occ. eigenvalues --  -19.49453 -10.54053 -10.53794 -10.52710 -10.48016
 Alpha  occ. eigenvalues --   -1.39877  -1.10106  -1.01586  -0.86556  -0.83399
 Alpha  occ. eigenvalues --   -0.77939  -0.73641  -0.70168  -0.68494  -0.64505
 Alpha  occ. eigenvalues --   -0.56450  -0.50361
 Alpha virt. eigenvalues --   -0.40451  -0.27295  -0.22287  -0.15208  -0.13923
 Alpha virt. eigenvalues --   -0.12988  -0.11700  -0.10931  -0.10503  -0.09039
 Alpha virt. eigenvalues --   -0.06719  -0.05974  -0.05395  -0.04426  -0.03216

  Beta  occ. eigenvalues --  -19.49453 -10.54053 -10.53794 -10.52710 -10.48016
  Beta  occ. eigenvalues --   -1.39877  -1.10106  -1.01586  -0.86556  -0.83399
  Beta  occ. eigenvalues --   -0.77939  -0.73641  -0.70168  -0.68494  -0.64505
  Beta  occ. eigenvalues --   -0.56450  -0.50361
  Beta virt. eigenvalues --   -0.40452  -0.27295  -0.22287  -0.15208  -0.13923
  Beta virt. eigenvalues --   -0.12988  -0.11700  -0.10931  -0.10503  -0.09039
  Beta virt. eigenvalues --   -0.06719  -0.05974  -0.05395  -0.04426  -0.03216

 Mulliken atomic charges:
              1
     1  C    0.017210
     2  C    0.936197
     3  H   -0.415772
     4  C    0.672237
     5  H   -0.396420
     6  C    0.761480
     7  H   -0.283458
     8  O   -0.291473
 Sum of Mulliken atomic charges =   1.00000

 Dipole moment (field-independent basis, Debye):
    X=             -0.7303    Y=             -0.8077    Z=             -0.1991  Tot=              1.1069
 Quadrupole moment (field-independent basis, Debye-Ang):
   XX=            -14.4111   YY=            -20.0100   ZZ=            -27.4557
   XY=             -3.4801   XZ=             -0.9745   YZ=              1.4878

  Exact polarizability:  49.326  -1.380  49.681  -1.086  -1.946  26.422
 Approx polarizability:  84.006   3.841 113.980  -2.855  -8.517  40.292

                     1                      2                      3
                     A                      A                      A
 Frequencies --   424.6840               521.5646               634.2124
 Red. masses --     3.4072                 2.4484                 7.7317
 Frc consts  --     0.3621                 0.3924                 1.8323
 IR Inten    --    23.3124                58.0403                35.6742

                     4                      5                      6
                     A                      A                      A
 Frequencies --   704.0586               794.9974               826.1577
 Red. masses --     2.2111                 1.7824                 1.6589
 Frc consts  --     0.6458                 0.6637                 0.6671
 IR Inten    --    16.3711                28.7178                23.4135

                     7                      8                      9
                     A                      A                      A
 Frequencies --   884.4093               968.2462              1066.7842
 Red. masses --     2.1951                 2.2292                 1.7363
 Frc consts  --     1.0116                 1.2313                 1.1642
 IR Inten    --    33.7154                 9.8355                15.5830

                    10                     11                     12
                     A                      A                      A
 Frequencies --  1092.8601              1220.2112              1238.2063
 Red. masses --     1.5805                 1.9020                 2.1822
 Frc consts  --     1.1122                 1.6685                 1.9712
 IR Inten    --    49.2828                 6.4567                11.5021

                    13                     14                     15
                     A                      A                      A
 Frequencies --  1306.6836              1432.8988              1515.8558
 Red. masses --     3.0315                 2.6614                 7.0776
 Frc consts  --     3.0496                 3.2195                 9.5819
 IR Inten    --    41.5023                11.5155                13.9682

                    16                     17                     18
                     A                      A                      A
 Frequencies --  3225.9391              3258.1712              3274.3884
 Red. masses --     1.0949                 1.1035                 1.1029
 Frc consts  --     6.7130                 6.9018                 6.9672
 IR Inten    --    58.4864                71.3239                62.8529

 - Thermochemistry -
 -------------------
 Temperature   298.150 Kelvin.  Pressure   1.00000 Atm.
 Atom     1 has atomic number  6 and mass  12.00000

 Molecular mass:    67.01839 amu.
 Principal axes and moments of inertia in atomic units:
                           1         2         3
     Eigenvalues --   154.85564 213.21329 362.29779
           X            0.98945  -0.14414  -0.01459
           Y            0.14440   0.98933   0.01911
           Z            0.01168  -0.02101   0.99971
 This molecule is an asymmetric top.
 Rotational symmetry number  1.
 Rotational temperatures (Kelvin)      0.55932     0.40623     0.23907
 Rotational constants (GHZ):          11.65435     8.46449     4.98138
 Zero-point vibrational energy     145886.6 (Joules/Mol)
                                   34.86773 (Kcal/Mol)
 Warning -- explicit consideration of   2 degrees of freedom as
           vibrations may cause significant error
 Vibrational temperatures:    611.02   750.41   912.49  1012.98  1143.82
          (Kelvin)           1188.66  1272.47  1393.09  1534.86  1572.38
                             1755.61  1781.50  1880.02  2061.62  2180.98
                             4641.40  4687.78  4711.11

 Zero-point correction=                           0.055565 (Hartree/Particle)
 Thermal correction to Energy=                    0.059501
 Thermal correction to Enthalpy=                  0.060446
 Thermal correction to Gibbs Free Energy=         0.029270
 Sum of electronic and zero-point Energies=           -228.943777
 Sum of electronic and thermal Energies=              -228.939841
 Sum of electronic and thermal Enthalpies=            -228.938897
 Sum of electronic and thermal Free Energies=         -228.970072

                     E (Thermal)             CV                S
                      KCal/Mol        Cal/Mol-Kelvin    Cal/Mol-Kelvin
 Total                   37.338             13.844             65.615
 Electronic               0.000              0.000              0.000
 Translational            0.889              2.981             38.525
 Rotational               0.889              2.981             23.996
 Vibrational             35.560              7.883              3.094
 Vibration     1          0.787              1.417              0.876
 Vibration     2          0.877              1.202              0.606

 Optimization completed.
    -- Stationary point found.
 Normal termination of Gaussian 09 at Tue Mar  6 05:00:09 2018.
