 Gaussian 09, Revision B.01,
 Gaussian 09:  EM64L-G09RevB.01 12-Aug-2010

 -------------------------------------------------
 #p Temperature=298.15 opt freq UB3LYP/aug-cc-pVDZ
 -------------------------------------------------

 --------------------------------------
 Furan-3-N2+-UB3LYP-aug-cc-pVDZ-Triplet
 --------------------------------------
 Symbolic Z-matrix:
 Charge =  1 Multiplicity = 3

 SCF Done:  E(UB3LYP) =  -338.555778058     A.U. after   18 cycles
 SCF Done:  E(UB3LYP) =  -338.555778648     A.U. after   13 cycles
 SCF Done:  E(UB3LYP) =  -338.555779351     A.U. after   13 cycles
 SCF Done:  E(UB3LYP) =  -338.555780159     A.U. after   22 cycles
 SCF Done:  E(UB3LYP) =  -338.555780728     A.U. after   13 cycles
 SCF Done:  E(UB3LYP) =  -338.555781227     A.U. after   13 cycles
 SCF Done:  E(UB3LYP) =  -338.555779814     A.U. after   13 cycles
 SCF Done:  E(UB3LYP) =  -338.556110027     A.U. after   19 cycles
 SCF Done:  E(UB3LYP) =  -338.556628139     A.U. after   18 cycles
 SCF Done:  E(UB3LYP) =  -338.558083281     A.U. after   18 cycles
 SCF Done:  E(UB3LYP) =  -338.563962277     A.U. after   18 cycles
 SCF Done:  E(UB3LYP) =  -338.564257258     A.U. after   19 cycles
 SCF Done:  E(UB3LYP) =  -338.564504356     A.U. after   16 cycles
 SCF Done:  E(UB3LYP) =  -338.564589986     A.U. after   18 cycles
 SCF Done:  E(UB3LYP) =  -338.564716819     A.U. after   16 cycles
 SCF Done:  E(UB3LYP) =  -338.564761215     A.U. after   15 cycles
 SCF Done:  E(UB3LYP) =  -338.564771435     A.U. after   15 cycles
 SCF Done:  E(UB3LYP) =  -338.564773390     A.U. after   12 cycles
 SCF Done:  E(UB3LYP) =  -338.564773817     A.U. after   12 cycles
 Optimization completed.
    -- Stationary point found.
 Normal termination of Gaussian 09 at Sun Jan 30 21:49:38 2005.

 ----------------------------------------------------------------------
 #P Geom=AllCheck Guess=TCheck SCRF=Check GenChk UB3LYP/Aug-CC-pVDZ Fre
 q
 ----------------------------------------------------------------------

 Furan-3-N2+-UB3LYP-aug-cc-pVDZ-Triplet
 --------------------------------------
 Redundant internal coordinates taken from checkpoint file:
 Furan-3-N2+-UB3LYP-aug-cc-pVDZ-Triplet.chk
 Charge =  1 Multiplicity = 3

                         Standard orientation:
 ---------------------------------------------------------------------
 Center     Atomic      Atomic             Coordinates (Angstroms)
 Number     Number       Type             X           Y           Z
 ---------------------------------------------------------------------
      1          7           0       -1.763022    0.394643   -0.253035
      2          7           0       -2.596186   -0.279959    0.264121
      3          6           0       -0.371882    0.205051   -0.073135
      4          6           0        0.606864    1.190267    0.021008
      5          1           0        0.473726    2.268774    0.040207
      6          6           0        1.821601    0.501881    0.084424
      7          1           0        2.855655    0.830068    0.168700
      8          6           0        0.312974   -1.059355   -0.070918
      9          1           0       -0.047788   -2.084728   -0.141101
     10          8           0        1.626940   -0.855496    0.010789
 ---------------------------------------------------------------------

 SCF Done:  E(UB3LYP) =  -338.564773817     A.U. after    1 cycles

 The electronic state is 3-A.
 Alpha  occ. eigenvalues --  -19.48723 -14.63163 -14.61585 -10.54994 -10.53707
 Alpha  occ. eigenvalues --  -10.51142 -10.45610  -1.39946  -1.28794  -1.09236
 Alpha  occ. eigenvalues --   -1.03043  -0.93980  -0.85994  -0.82969  -0.75527
 Alpha  occ. eigenvalues --   -0.73590  -0.70071  -0.69168  -0.67238  -0.65300
 Alpha  occ. eigenvalues --   -0.64074  -0.60282  -0.54505  -0.51768  -0.41883
 Alpha virt. eigenvalues --   -0.29704  -0.25702  -0.18507  -0.15484  -0.13848
 Alpha virt. eigenvalues --   -0.13273  -0.12738  -0.11433  -0.10656  -0.09341
 Alpha virt. eigenvalues --   -0.06730  -0.05638  -0.05478  -0.05093  -0.03965

  Beta  occ. eigenvalues --  -19.48834 -14.62833 -14.59836 -10.54165 -10.52981
  Beta  occ. eigenvalues --  -10.50575 -10.45689  -1.39575  -1.26801  -1.08173
  Beta  occ. eigenvalues --   -1.00975  -0.91993  -0.85057  -0.81952  -0.74729
  Beta  occ. eigenvalues --   -0.71375  -0.69379  -0.67759  -0.65107  -0.63885
  Beta  occ. eigenvalues --   -0.62032  -0.57695  -0.52777
  Beta virt. eigenvalues --   -0.41016  -0.27010  -0.25802  -0.23047  -0.16364
  Beta virt. eigenvalues --   -0.15142  -0.13216  -0.12934  -0.12581  -0.11277
  Beta virt. eigenvalues --   -0.10247  -0.09055  -0.06253  -0.05339  -0.05237

 Mulliken atomic charges:
              1
     1  N    0.006058
     2  N   -0.341946
     3  C    0.411101
     4  C    1.524394
     5  H   -0.452146
     6  C    0.297259
     7  H   -0.441900
     8  C    0.695546
     9  H   -0.426621
    10  O   -0.271744
 Sum of Mulliken atomic charges =   1.00000

 Dipole moment (field-independent basis, Debye):
    X=              3.8878    Y=              0.5196    Z=             -0.0479  Tot=              3.9227
 Quadrupole moment (field-independent basis, Debye-Ang):
   XX=            -27.9246   YY=            -26.7815   ZZ=            -37.2639
   XY=              3.9952   XZ=              0.8670   YZ=              1.3004

  Exact polarizability:  89.253   8.022  57.238   0.105  -0.495  33.809
 Approx polarizability: 144.897  16.111  94.842  -0.703  -2.713  52.875

                     1                      2                      3
                     A                      A                      A
 Frequencies --    77.9937               173.8272               298.7776
 Red. masses --     9.0369                 6.9051                 6.1029
 Frc consts  --     0.0324                 0.1229                 0.3210
 IR Inten    --     3.1415                 0.9626                 9.4896

                     4                      5                      6
                     A                      A                      A
 Frequencies --   450.5503               495.7320               547.2891
 Red. masses --     4.6246                 2.5656                 4.1151
 Frc consts  --     0.5531                 0.3715                 0.7262
 IR Inten    --     9.2742                28.6992                19.6446

                     7                      8                      9
                     A                      A                      A
 Frequencies --   626.3545               824.0311               840.2703
 Red. masses --     5.0341                 1.3139                 1.8097
 Frc consts  --     1.1636                 0.5256                 0.7528
 IR Inten    --     4.4097                21.0608                16.7848

                    10                     11                     12
                     A                      A                      A
 Frequencies --   869.2824               876.7397               908.3983
 Red. masses --     6.7111                 7.6188                 1.5317
 Frc consts  --     2.9879                 3.4505                 0.7447
 IR Inten    --    30.6854                27.6415                 4.8581

                    13                     14                     15
                     A                      A                      A
 Frequencies --   983.7327              1064.0387              1126.8880
 Red. masses --     2.4660                 1.7439                 2.5042
 Frc consts  --     1.4060                 1.1633                 1.8736
 IR Inten    --    24.9543                34.9663                24.4765

                    16                     17                     18
                     A                      A                      A
 Frequencies --  1215.3259              1260.3273              1372.0897
 Red. masses --     2.5865                 1.6833                 2.5926
 Frc consts  --     2.2508                 1.5753                 2.8757
 IR Inten    --    13.2900                 0.4910               149.0504

                    19                     20                     21
                     A                      A                      A
 Frequencies --  1444.7298              1508.2505              1792.8386
 Red. masses --     4.1764                 3.8025                13.7982
 Frc consts  --     5.1361                 5.0964                26.1309
 IR Inten    --   204.2441                30.7180                43.5167

                    22                     23                     24
                     A                      A                      A
 Frequencies --  3248.4785              3255.4548              3269.1337
 Red. masses --     1.0970                 1.0976                 1.1080
 Frc consts  --     6.8208                 6.8535                 6.9767
 IR Inten    --    40.6088                46.1581                34.5050

 - Thermochemistry -
 -------------------
 Temperature   298.150 Kelvin.  Pressure   1.00000 Atm.
 Atom     1 has atomic number  7 and mass  14.00307

 Molecular mass:    95.02454 amu.
 Principal axes and moments of inertia in atomic units:
                           1         2         3
     Eigenvalues --   218.90531 849.413921053.07114
           X            0.99980   0.02005   0.00231
           Y           -0.02007   0.99976   0.00929
           Z           -0.00212  -0.00934   0.99995
 This molecule is an asymmetric top.
 Rotational symmetry number  1.
 Rotational temperatures (Kelvin)      0.39567     0.10197     0.08225
 Rotational constants (GHZ):           8.24439     2.12469     1.71379
 Zero-point vibrational energy     170650.5 (Joules/Mol)
                                   40.78645 (Kcal/Mol)
 Warning -- explicit consideration of   6 degrees of freedom as
           vibrations may cause significant error
 Vibrational temperatures:    112.22   250.10   429.87   648.24   713.25
          (Kelvin)            787.43   901.18  1185.60  1208.96  1250.70
                             1261.43  1306.98  1415.37  1530.91  1621.34
                             1748.58  1813.33  1974.13  2078.64  2170.03
                             2579.49  4673.83  4683.87  4703.55

 Zero-point correction=                           0.064997 (Hartree/Particle)
 Thermal correction to Energy=                    0.070911
 Thermal correction to Enthalpy=                  0.071855
 Thermal correction to Gibbs Free Energy=         0.033911
 Sum of electronic and zero-point Energies=           -338.499776
 Sum of electronic and thermal Energies=              -338.493863
 Sum of electronic and thermal Enthalpies=            -338.492918
 Sum of electronic and thermal Free Energies=         -338.530863

                     E (Thermal)             CV                S
                      KCal/Mol        Cal/Mol-Kelvin    Cal/Mol-Kelvin
 Total                   44.498             20.616             79.860
 Electronic               0.000              0.000              2.183
 Translational            0.889              2.981             39.566
 Rotational               0.889              2.981             26.773
 Vibrational             42.720             14.654             11.338
 Vibration     1          0.599              1.964              3.941
 Vibration     2          0.627              1.875              2.394
 Vibration     3          0.692              1.676              1.424
 Vibration     4          0.809              1.360              0.794
 Vibration     5          0.851              1.259              0.669
 Vibration     6          0.902              1.146              0.550

 Optimization completed.
    -- Stationary point found.
 Normal termination of Gaussian 09 at Sun Jan 30 21:53:12 2005.
