 Gaussian 09, Revision B.01,
 Gaussian 09:  EM64L-G09RevB.01 12-Aug-2010

 -------------------------------------------------
 #p Temperature=298.15 opt freq UB3LYP/aug-cc-pVDZ
 -------------------------------------------------

 ------------------------------------
 Furan-3-N2-UB3LYP-aug-cc-pVDZ-Duplet
 ------------------------------------
 Symbolic Z-matrix:
 Charge =  0 Multiplicity = 2

 SCF Done:  E(UB3LYP) =  -338.856482368     A.U. after   23 cycles
 SCF Done:  E(UB3LYP) =  -338.875111499     A.U. after   20 cycles
 SCF Done:  E(UB3LYP) =  -338.876907553     A.U. after   19 cycles
 SCF Done:  E(UB3LYP) =  -338.876304005     A.U. after   22 cycles
 SCF Done:  E(UB3LYP) =  -338.877149592     A.U. after   21 cycles
 SCF Done:  E(UB3LYP) =  -338.877221351     A.U. after   18 cycles
 SCF Done:  E(UB3LYP) =  -338.877226250     A.U. after   17 cycles
 SCF Done:  E(UB3LYP) =  -338.877243063     A.U. after   17 cycles
 SCF Done:  E(UB3LYP) =  -338.878395726     A.U. after   22 cycles
 SCF Done:  E(UB3LYP) =  -338.856840499     A.U. after   19 cycles
 SCF Done:  E(UB3LYP) =  -338.890698174     A.U. after   20 cycles
 SCF Done:  E(UB3LYP) =  -338.900719313     A.U. after   19 cycles
 SCF Done:  E(UB3LYP) =  -338.901240695     A.U. after   17 cycles
 SCF Done:  E(UB3LYP) =  -338.901312998     A.U. after   19 cycles
 SCF Done:  E(UB3LYP) =  -338.901585917     A.U. after   17 cycles
 SCF Done:  E(UB3LYP) =  -338.901679307     A.U. after   19 cycles
 SCF Done:  E(UB3LYP) =  -338.901750589     A.U. after   23 cycles
 SCF Done:  E(UB3LYP) =  -338.901760453     A.U. after   19 cycles
 SCF Done:  E(UB3LYP) =  -338.901761555     A.U. after   23 cycles
 Optimization completed.
    -- Stationary point found.
 Normal termination of Gaussian 09 at Tue Mar  6 08:03:51 2018.

 ----------------------------------------------------------------------
 #P Geom=AllCheck Guess=TCheck SCRF=Check GenChk UB3LYP/Aug-CC-pVDZ Fre
 q
 ----------------------------------------------------------------------

 Furan-3-N2-UB3LYP-aug-cc-pVDZ-Duplet
 ------------------------------------
 Redundant internal coordinates taken from checkpoint file:
 Furan-3-N2-UB3LYP-aug-cc-pVDZ-Duplet.chk
 Charge =  0 Multiplicity = 2

                         Standard orientation:
 ---------------------------------------------------------------------
 Center     Atomic      Atomic             Coordinates (Angstroms)
 Number     Number       Type             X           Y           Z
 ---------------------------------------------------------------------
      1          7           0        1.754040    0.498703    0.000693
      2          7           0        2.631291   -0.302487   -0.000645
      3          6           0        0.356544    0.187097    0.000177
      4          6           0       -0.686531    1.172906   -0.000166
      5          1           0       -0.565027    2.250538   -0.000117
      6          6           0       -1.851533    0.468828   -0.000299
      7          1           0       -2.897214    0.750339    0.000149
      8          6           0       -0.250967   -1.042825    0.000093
      9          1           0        0.126406   -2.057621    0.000451
     10          8           0       -1.595819   -0.879100    0.000044
 ---------------------------------------------------------------------

 SCF Done:  E(UB3LYP) =  -338.901761555     A.U. after    1 cycles

 The electronic state is 2-A.
 Alpha  occ. eigenvalues --  -19.24749 -14.42573 -14.40098 -10.27124 -10.26488
 Alpha  occ. eigenvalues --  -10.25372 -10.21701  -1.14703  -1.07630  -0.84880
 Alpha  occ. eigenvalues --   -0.78335  -0.70918  -0.62225  -0.59113  -0.52151
 Alpha  occ. eigenvalues --   -0.48758  -0.47790  -0.46709  -0.44935  -0.43986
 Alpha  occ. eigenvalues --   -0.42159  -0.38926  -0.30955  -0.26258  -0.21360
 Alpha virt. eigenvalues --   -0.07756  -0.01593  -0.00894   0.00771   0.01302
 Alpha virt. eigenvalues --    0.03651   0.03830   0.04007   0.05898   0.06119
 Alpha virt. eigenvalues --    0.07813   0.08416   0.08655   0.09007   0.09216

  Beta  occ. eigenvalues --  -19.24746 -14.42190 -14.38516 -10.27145 -10.26476
  Beta  occ. eigenvalues --  -10.25013 -10.21720  -1.14682  -1.05804  -0.84279
  Beta  occ. eigenvalues --   -0.78158  -0.69331  -0.62008  -0.58972  -0.51383
  Beta  occ. eigenvalues --   -0.48734  -0.46634  -0.44764  -0.43363  -0.43272
  Beta  occ. eigenvalues --   -0.41366  -0.36295  -0.30640  -0.26163
  Beta virt. eigenvalues --   -0.07006  -0.06815  -0.01433  -0.00831   0.00797
  Beta virt. eigenvalues --    0.01355   0.03664   0.03955   0.04080   0.05958
  Beta virt. eigenvalues --    0.06333   0.07840   0.08495   0.08645   0.09158

 Mulliken atomic charges:
              1
     1  N    0.082990
     2  N   -0.574281
     3  C    0.430725
     4  C    1.383815
     5  H   -0.610937
     6  C    0.137545
     7  H   -0.555002
     8  C    0.643161
     9  H   -0.583420
    10  O   -0.354597
 Sum of Mulliken atomic charges =   0.00000

 Dipole moment (field-independent basis, Debye):
    X=             -2.8105    Y=              0.3735    Z=              0.0009  Tot=              2.8352
 Quadrupole moment (field-independent basis, Debye-Ang):
   XX=            -45.1015   YY=            -36.3889   ZZ=            -41.0107
   XY=             -2.2715   XZ=              0.0004   YZ=             -0.0032

  Exact polarizability:  87.609  -4.739  64.737  -0.002   0.004  39.546
 Approx polarizability: 136.166  -5.497 108.357  -0.008   0.011  58.940

                     1                      2                      3
                     A                      A                      A
 Frequencies --    95.0473               230.5506               272.9053
 Red. masses --     8.3540                 6.9372                 7.9484
 Frc consts  --     0.0445                 0.2173                 0.3488
 IR Inten    --     0.2798                 2.0425                 0.1194

                     4                      5                      6
                     A                      A                      A
 Frequencies --   480.6207               611.0290               624.7682
 Red. masses --     7.2605                 2.6775                 3.3985
 Frc consts  --     0.9882                 0.5890                 0.7816
 IR Inten    --     6.9807                20.5725                 2.2513

                     7                      8                      9
                     A                      A                      A
 Frequencies --   646.4723               736.3666               812.1924
 Red. masses --    10.2723                 1.3054                 1.5176
 Frc consts  --     2.5294                 0.4170                 0.5898
 IR Inten    --    34.1696                25.1289                48.5490

                    10                     11                     12
                     A                      A                      A
 Frequencies --   855.6495               880.4778               980.9199
 Red. masses --     1.3650                 5.7608                 4.7702
 Frc consts  --     0.5888                 2.6313                 2.7043
 IR Inten    --     1.3475                21.2740                 2.6518

                    13                     14                     15
                     A                      A                      A
 Frequencies --  1019.3486              1089.5769              1175.1198
 Red. masses --     1.9330                 1.6141                 4.0850
 Frc consts  --     1.1834                 1.1290                 3.3236
 IR Inten    --    25.9784                11.7777                28.5949

                    16                     17                     18
                     A                      A                      A
 Frequencies --  1239.4860              1253.7211              1416.3382
 Red. masses --     1.7879                 1.9396                 4.4052
 Frc consts  --     1.6183                 1.7963                 5.2065
 IR Inten    --     0.6803                 8.2647                12.3713

                    19                     20                     21
                     A                      A                      A
 Frequencies --  1516.5934              1574.1292              1834.2782
 Red. masses --     3.8809                 5.4239                13.7873
 Frc consts  --     5.2592                 7.9184                27.3312
 IR Inten    --    28.1047                 7.3784                22.6587

                    22                     23                     24
                     A                      A                      A
 Frequencies --  3265.8464              3293.0710              3297.2445
 Red. masses --     1.0930                 1.1010                 1.1053
 Frc consts  --     6.8684                 7.0348                 7.0797
 IR Inten    --     1.5459                 3.9975                 2.7161

 - Thermochemistry -
 -------------------
 Temperature   298.150 Kelvin.  Pressure   1.00000 Atm.
 Atom     1 has atomic number  7 and mass  14.00307

 Molecular mass:    95.02454 amu.
 Principal axes and moments of inertia in atomic units:
                           1         2         3
     Eigenvalues --   212.81476 852.061101064.87576
           X            0.99979  -0.02069   0.00000
           Y            0.02069   0.99979  -0.00002
           Z            0.00000   0.00002   1.00000
 This molecule is an asymmetric top.
 Rotational symmetry number  1.
 Rotational temperatures (Kelvin)      0.40699     0.10165     0.08134
 Rotational constants (GHZ):           8.48034     2.11809     1.69479
 Zero-point vibrational energy     174665.3 (Joules/Mol)
                                   41.74600 (Kcal/Mol)
 Warning -- explicit consideration of   5 degrees of freedom as
           vibrations may cause significant error
 Vibrational temperatures:    136.75   331.71   392.65   691.51   879.13
          (Kelvin)            898.90   930.13  1059.47  1168.56  1231.09
                             1266.81  1411.32  1466.61  1567.66  1690.73
                             1783.34  1803.82  2037.79  2182.04  2264.82
                             2639.11  4698.82  4737.99  4743.99

 Zero-point correction=                           0.066526 (Hartree/Particle)
 Thermal correction to Energy=                    0.072207
 Thermal correction to Enthalpy=                  0.073151
 Thermal correction to Gibbs Free Energy=         0.036176
 Sum of electronic and zero-point Energies=           -338.835235
 Sum of electronic and thermal Energies=              -338.829555
 Sum of electronic and thermal Enthalpies=            -338.828611
 Sum of electronic and thermal Free Energies=         -338.865585

                     E (Thermal)             CV                S
                      KCal/Mol        Cal/Mol-Kelvin    Cal/Mol-Kelvin
 Total                   45.310             20.000             77.820
 Electronic               0.000              0.000              1.377
 Translational            0.889              2.981             39.566
 Rotational               0.889              2.981             26.760
 Vibrational             43.533             14.039             10.117
 Vibration     1          0.603              1.953              3.553
 Vibration     2          0.652              1.794              1.875
 Vibration     3          0.676              1.723              1.578
 Vibration     4          0.837              1.293              0.708
 Vibration     5          0.970              1.008              0.431

 Optimization completed.
    -- Stationary point found.
 Normal termination of Gaussian 09 at Tue Mar  6 08:07:33 2018.
