 Gaussian 09, Revision B.01,
 Gaussian 09:  EM64L-G09RevB.01 12-Aug-2010

 -------------------------------------------------
 #p Temperature=298.15 opt freq UB3LYP/aug-cc-pVDZ
 -------------------------------------------------

 ---------------------------------
 Furan-2-UB3LYP-aug-cc-pVDZ-Duplet
 ---------------------------------
 Symbolic Z-matrix:
 Charge =  0 Multiplicity = 2

 SCF Done:  E(UB3LYP) =  -229.335814666     A.U. after   19 cycles
 SCF Done:  E(UB3LYP) =  -229.350228597     A.U. after   15 cycles
 SCF Done:  E(UB3LYP) =  -229.351756022     A.U. after   19 cycles
 SCF Done:  E(UB3LYP) =  -229.351937672     A.U. after   19 cycles
 SCF Done:  E(UB3LYP) =  -229.351969021     A.U. after   13 cycles
 SCF Done:  E(UB3LYP) =  -229.351968310     A.U. after   18 cycles
 SCF Done:  E(UB3LYP) =  -229.351973240     A.U. after   17 cycles
 Optimization completed.
    -- Stationary point found.
 Normal termination of Gaussian 09 at Tue Mar  6 07:31:45 2018.

 ----------------------------------------------------------------------
 #P Geom=AllCheck Guess=TCheck SCRF=Check GenChk UB3LYP/Aug-CC-pVDZ Fre
 q
 ----------------------------------------------------------------------

 Furan-2-UB3LYP-aug-cc-pVDZ-Duplet
 ---------------------------------
 Redundant internal coordinates taken from checkpoint file:
 Furan-2-UB3LYP-aug-cc-pVDZ-Duplet.chk
 Charge =  0 Multiplicity = 2

                         Standard orientation:
 ---------------------------------------------------------------------
 Center     Atomic      Atomic             Coordinates (Angstroms)
 Number     Number       Type             X           Y           Z
 ---------------------------------------------------------------------
      1          6           0        0.215578   -1.162614   -0.000198
      2          6           0        1.213295   -0.237236    0.000247
      3          1           0        2.282482   -0.409971    0.000326
      4          6           0        0.501592    1.024634   -0.000239
      5          1           0        0.944193    2.016375   -0.000266
      6          6           0       -0.830891    0.737357    0.000109
      7          1           0       -1.736634    1.330521    0.000458
      8          8           0       -1.010935   -0.638722   -0.000003
 ---------------------------------------------------------------------

 SCF Done:  E(UB3LYP) =  -229.351973240     A.U. after    1 cycles

 The electronic state is 2-A.
 Alpha  occ. eigenvalues --  -19.23521 -10.27681 -10.25061 -10.20781 -10.20644
 Alpha  occ. eigenvalues --   -1.13765  -0.82096  -0.75687  -0.61850  -0.57234
 Alpha  occ. eigenvalues --   -0.53897  -0.47039  -0.44226  -0.42051  -0.40797
 Alpha  occ. eigenvalues --   -0.30173  -0.29763  -0.24981
 Alpha virt. eigenvalues --   -0.01403  -0.00578   0.01025   0.01822   0.03749
 Alpha virt. eigenvalues --    0.04462   0.05088   0.05220   0.06776   0.08535
 Alpha virt. eigenvalues --    0.08998   0.09433   0.09487   0.10206   0.10494

  Beta  occ. eigenvalues --  -19.23381 -10.25996 -10.25010 -10.20685 -10.20565
  Beta  occ. eigenvalues --   -1.13160  -0.81547  -0.74278  -0.61185  -0.56554
  Beta  occ. eigenvalues --   -0.52465  -0.46583  -0.43521  -0.41587  -0.40288
  Beta  occ. eigenvalues --   -0.29827  -0.24013
  Beta virt. eigenvalues --   -0.13055  -0.00537  -0.00403   0.01084   0.02030
  Beta virt. eigenvalues --    0.04478   0.04896   0.05099   0.05440   0.06839
  Beta virt. eigenvalues --    0.08530   0.09103   0.09599   0.09655   0.10256

 Mulliken atomic charges:
              1
     1  C   -0.264721
     2  C    0.787757
     3  H   -0.472438
     4  C    1.141248
     5  H   -0.533906
     6  C    0.232415
     7  H   -0.505563
     8  O   -0.384793
 Sum of Mulliken atomic charges =   0.00000

 Dipole moment (field-independent basis, Debye):
    X=              0.5169    Y=              1.3128    Z=              0.0008  Tot=              1.4110
 Quadrupole moment (field-independent basis, Debye-Ang):
   XX=            -26.1524   YY=            -27.6031   ZZ=            -31.4154
   XY=             -1.2376   XZ=             -0.0003   YZ=             -0.0005

  Exact polarizability:  54.648  -2.187  53.292   0.000   0.009  35.276
 Approx polarizability:  90.215   0.938  84.574   0.000   0.012  48.869

                     1                      2                      3
                     A                      A                      A
 Frequencies --   472.5596               604.1688               710.0585
 Red. masses --     4.4958                 3.2165                 1.4188
 Frc consts  --     0.5915                 0.6917                 0.4215
 IR Inten    --     0.0470                 9.0373                47.1822

                     4                      5                      6
                     A                      A                      A
 Frequencies --   763.7515               847.8552               860.2409
 Red. masses --     1.2208                 1.3073                 6.3582
 Frc consts  --     0.4196                 0.5537                 2.7722
 IR Inten    --    44.5107                 0.0325                 9.4412

                     7                      8                      9
                     A                      A                      A
 Frequencies --   868.4144               994.6076              1017.5039
 Red. masses --     6.6740                 1.5948                 3.0377
 Frc consts  --     2.9654                 0.9295                 1.8530
 IR Inten    --     3.1139                37.8405                 2.0333

                    10                     11                     12
                     A                      A                      A
 Frequencies --  1088.0640              1163.5482              1221.6191
 Red. masses --     1.9904                 2.6768                 1.4834
 Frc consts  --     1.3883                 2.1352                 1.3043
 IR Inten    --    19.9143                11.2254                11.9351

                    13                     14                     15
                     A                      A                      A
 Frequencies --  1355.2968              1455.9344              1569.5930
 Red. masses --     2.7375                 5.4901                 5.0346
 Frc consts  --     2.9626                 6.8567                 7.3079
 IR Inten    --     4.2200                23.7372                 2.5606

                    16                     17                     18
                     A                      A                      A
 Frequencies --  3248.9840              3285.2270              3296.6664
 Red. masses --     1.0924                 1.0983                 1.1047
 Frc consts  --     6.7941                 6.9839                 7.0739
 IR Inten    --     0.9474                 0.4188                 0.3511

 - Thermochemistry -
 -------------------
 Temperature   298.150 Kelvin.  Pressure   1.00000 Atm.
 Atom     1 has atomic number  6 and mass  12.00000

 Molecular mass:    67.01839 amu.
 Principal axes and moments of inertia in atomic units:
                           1         2         3
     Eigenvalues --   172.24307 197.35301 369.59607
           X            0.98312  -0.18296  -0.00001
           Y            0.18296   0.98312   0.00000
           Z            0.00001   0.00000   1.00000
 This molecule is an asymmetric top.
 Rotational symmetry number  1.
 Rotational temperatures (Kelvin)      0.50286     0.43888     0.23435
 Rotational constants (GHZ):          10.47787     9.14474     4.88301
 Zero-point vibrational energy     148481.1 (Joules/Mol)
                                   35.48782 (Kcal/Mol)
 Warning -- explicit consideration of   2 degrees of freedom as
           vibrations may cause significant error
 Vibrational temperatures:    679.91   869.26  1021.61  1098.87  1219.87
          (Kelvin)           1237.69  1249.45  1431.02  1463.96  1565.48
                             1674.08  1757.64  1949.97  2094.76  2258.29
                             4674.56  4726.70  4743.16

 Zero-point correction=                           0.056553 (Hartree/Particle)
 Thermal correction to Energy=                    0.060328
 Thermal correction to Enthalpy=                  0.061272
 Thermal correction to Gibbs Free Energy=         0.029663
 Sum of electronic and zero-point Energies=           -229.295420
 Sum of electronic and thermal Energies=              -229.291646
 Sum of electronic and thermal Enthalpies=            -229.290701
 Sum of electronic and thermal Free Energies=         -229.322310

                     E (Thermal)             CV                S
                      KCal/Mol        Cal/Mol-Kelvin    Cal/Mol-Kelvin
 Total                   37.856             13.216             66.526
 Electronic               0.000              0.000              1.377
 Translational            0.889              2.981             38.525
 Rotational               0.889              2.981             24.045
 Vibrational             36.079              7.255              2.578
 Vibration     1          0.829              1.311              0.730
 Vibration     2          0.963              1.023              0.443

 Optimization completed.
    -- Stationary point found.
 Normal termination of Gaussian 09 at Tue Mar  6 07:32:57 2018.
