 Gaussian 09, Revision B.01,
 Gaussian 09:  EM64L-G09RevB.01 12-Aug-2010

 -------------------------------------------------
 #p Temperature=298.15 opt freq UB3LYP/aug-cc-pVDZ
 -------------------------------------------------

 -----------------------------------
 Furan-2+-UB3LYP-aug-cc-pVDZ-Triplet
 -----------------------------------
 Symbolic Z-matrix:
 Charge =  1 Multiplicity = 3

 SCF Done:  E(UB3LYP) =  -229.013709445     A.U. after   16 cycles
 SCF Done:  E(UB3LYP) =  -229.026972167     A.U. after   16 cycles
 SCF Done:  E(UB3LYP) =  -229.028614094     A.U. after   16 cycles
 SCF Done:  E(UB3LYP) =  -229.028822736     A.U. after   14 cycles
 SCF Done:  E(UB3LYP) =  -229.028892917     A.U. after   18 cycles
 SCF Done:  E(UB3LYP) =  -229.028902524     A.U. after   18 cycles
 SCF Done:  E(UB3LYP) =  -229.028908740     A.U. after   11 cycles
 SCF Done:  E(UB3LYP) =  -229.028908909     A.U. after   10 cycles
 Optimization completed.
    -- Stationary point found.
 Normal termination of Gaussian 09 at Thu Jan 20 23:20:18 2005.

 ----------------------------------------------------------------------
 #P Geom=AllCheck Guess=TCheck SCRF=Check GenChk UB3LYP/Aug-CC-pVDZ Fre
 q
 ----------------------------------------------------------------------

 Furan-2+-UB3LYP-aug-cc-pVDZ-Triplet
 -----------------------------------
 Redundant internal coordinates taken from checkpoint file:
 Furan-2+-UB3LYP-aug-cc-pVDZ-Triplet.chk
 Charge =  1 Multiplicity = 3

                         Standard orientation:
 ---------------------------------------------------------------------
 Center     Atomic      Atomic             Coordinates (Angstroms)
 Number     Number       Type             X           Y           Z
 ---------------------------------------------------------------------
      1          6           0       -0.018439   -1.178771    0.000664
      2          6           0        1.173697   -0.401909   -0.000528
      3          1           0        2.190986   -0.783968   -0.000570
      4          6           0        0.709766    0.908716    0.000319
      5          1           0        1.300203    1.822890    0.000641
      6          6           0       -0.704089    0.848498   -0.000129
      7          1           0       -1.488878    1.603442   -0.000104
      8          8           0       -1.120989   -0.462696   -0.000240
 ---------------------------------------------------------------------

 SCF Done:  E(UB3LYP) =  -229.028908909     A.U. after    1 cycles

 The electronic state is 3-A.
 Alpha  occ. eigenvalues --  -19.49847 -10.57526 -10.55005 -10.47909 -10.46945
 Alpha  occ. eigenvalues --   -1.41515  -1.09028  -1.02698  -0.87633  -0.83305
 Alpha  occ. eigenvalues --   -0.79393  -0.74252  -0.68889  -0.67774  -0.66066
 Alpha  occ. eigenvalues --   -0.56316  -0.55908  -0.52619
 Alpha virt. eigenvalues --   -0.28933  -0.21384  -0.15896  -0.13413  -0.12427
 Alpha virt. eigenvalues --   -0.11897  -0.11353  -0.10825  -0.08899  -0.07180
 Alpha virt. eigenvalues --   -0.06255  -0.05856  -0.05498  -0.03219  -0.02923

  Beta  occ. eigenvalues --  -19.49879 -10.55093 -10.54050 -10.47577 -10.46894
  Beta  occ. eigenvalues --   -1.40659  -1.07822  -0.99193  -0.86342  -0.81805
  Beta  occ. eigenvalues --   -0.77357  -0.71853  -0.67577  -0.67237  -0.65387
  Beta  occ. eigenvalues --   -0.54867
  Beta virt. eigenvalues --   -0.40590  -0.37080  -0.23609  -0.18076  -0.15647
  Beta virt. eigenvalues --   -0.12837  -0.12128  -0.11558  -0.10812  -0.10486
  Beta virt. eigenvalues --   -0.08268  -0.06440  -0.05786  -0.05179  -0.05168

 Mulliken atomic charges:
              1
     1  C    0.037132
     2  C    0.747116
     3  H   -0.355961
     4  C    1.274185
     5  H   -0.408782
     6  C    0.349987
     7  H   -0.367268
     8  O   -0.276410
 Sum of Mulliken atomic charges =   1.00000

 Dipole moment (field-independent basis, Debye):
    X=              1.2444    Y=              1.4003    Z=              0.0010  Tot=              1.8733
 Quadrupole moment (field-independent basis, Debye-Ang):
   XX=            -18.1186   YY=            -17.5367   ZZ=            -26.8806
   XY=             -2.6418   XZ=             -0.0007   YZ=             -0.0002

  Exact polarizability:  45.100  -3.602  48.506  -0.001   0.000  25.157
 Approx polarizability:  73.848  -6.245  82.605  -0.004   0.002  37.114

                     1                      2                      3
                     A                      A                      A
 Frequencies --   481.1074               589.1245               762.5512
 Red. masses --     2.2502                 6.3607                 9.0874
 Frc consts  --     0.3069                 1.3007                 3.1134
 IR Inten    --    14.2060                 2.6913                 7.5015

                     4                      5                      6
                     A                      A                      A
 Frequencies --   767.4561               854.8555               856.3005
 Red. masses --     1.2388                 6.9028                 1.4662
 Frc consts  --     0.4299                 2.9721                 0.6334
 IR Inten    --    62.6973                16.5181                 0.8465

                     7                      8                      9
                     A                      A                      A
 Frequencies --   942.7743               944.0673              1033.2626
 Red. masses --     6.6997                 1.3722                 1.5992
 Frc consts  --     3.5085                 0.7205                 1.0060
 IR Inten    --     9.1534                 0.0401                24.8749

                    10                     11                     12
                     A                      A                      A
 Frequencies --  1063.0784              1162.9305              1204.0165
 Red. masses --     1.3169                 3.3798                 2.2370
 Frc consts  --     0.8769                 2.6931                 1.9106
 IR Inten    --    11.7684                 3.6129                27.7318

                    13                     14                     15
                     A                      A                      A
 Frequencies --  1326.7621              1414.3465              1463.8391
 Red. masses --     2.2690                 3.0533                 3.7520
 Frc consts  --     2.3532                 3.5986                 4.7370
 IR Inten    --    58.9827                98.4679                11.5063

                    16                     17                     18
                     A                      A                      A
 Frequencies --  3244.3446              3259.5564              3271.8361
 Red. masses --     1.0947                 1.1020                 1.1056
 Frc consts  --     6.7891                 6.8982                 6.9730
 IR Inten    --    22.6595                58.8381                35.5274

 - Thermochemistry -
 -------------------
 Temperature   298.150 Kelvin.  Pressure   1.00000 Atm.
 Atom     1 has atomic number  6 and mass  12.00000

 Molecular mass:    67.01839 amu.
 Principal axes and moments of inertia in atomic units:
                           1         2         3
     Eigenvalues --   167.08048 205.69646 372.77685
           X            0.98813  -0.15360  -0.00001
           Y            0.15360   0.98813   0.00003
           Z            0.00000  -0.00003   1.00000
 This molecule is an asymmetric top.
 Rotational symmetry number  1.
 Rotational temperatures (Kelvin)      0.51840     0.42108     0.23235
 Rotational constants (GHZ):          10.80163     8.77381     4.84134
 Zero-point vibrational energy     147393.1 (Joules/Mol)
                                   35.22781 (Kcal/Mol)
 Warning -- explicit consideration of   2 degrees of freedom as
           vibrations may cause significant error
 Vibrational temperatures:    692.21   847.62  1097.14  1104.20  1229.94
          (Kelvin)           1232.02  1356.44  1358.30  1486.63  1529.53
                             1673.20  1732.31  1908.91  2034.93  2106.14
                             4667.88  4689.77  4707.44

 Zero-point correction=                           0.056139 (Hartree/Particle)
 Thermal correction to Energy=                    0.059893
 Thermal correction to Enthalpy=                  0.060838
 Thermal correction to Gibbs Free Energy=         0.028866
 Sum of electronic and zero-point Energies=           -228.972770
 Sum of electronic and thermal Energies=              -228.969015
 Sum of electronic and thermal Enthalpies=            -228.968071
 Sum of electronic and thermal Free Energies=         -229.000043

                     E (Thermal)             CV                S
                      KCal/Mol        Cal/Mol-Kelvin    Cal/Mol-Kelvin
 Total                   37.584             13.152             67.290
 Electronic               0.000              0.000              2.183
 Translational            0.889              2.981             38.525
 Rotational               0.889              2.981             24.064
 Vibrational             35.806              7.190              2.517
 Vibration     1          0.837              1.292              0.707
 Vibration     2          0.946              1.055              0.469

 Optimization completed.
    -- Stationary point found.
 Normal termination of Gaussian 09 at Thu Jan 20 23:21:29 2005.
