 Gaussian 09, Revision B.01,
 Gaussian 09:  EM64L-G09RevB.01 12-Aug-2010

 -------------------------------------------------
 #p Temperature=298.15 opt freq UB3LYP/aug-cc-pVDZ
 -------------------------------------------------

 ------------------------------------
 Furan-2-N2-UB3LYP-aug-cc-pVDZ-Duplet
 ------------------------------------
 Symbolic Z-matrix:
 Charge =  0 Multiplicity = 2

 SCF Done:  E(UB3LYP) =  -338.857147825     A.U. after   28 cycles
 SCF Done:  E(UB3LYP) =  -338.876389270     A.U. after   21 cycles
 SCF Done:  E(UB3LYP) =  -338.878306553     A.U. after   24 cycles
 SCF Done:  E(UB3LYP) =  -338.878101326     A.U. after   38 cycles
 SCF Done:  E(UB3LYP) =  -338.878889689     A.U. after   24 cycles
 SCF Done:  E(UB3LYP) =  -338.879059897     A.U. after   24 cycles
 SCF Done:  E(UB3LYP) =  -338.879080886     A.U. after   18 cycles
 SCF Done:  E(UB3LYP) =  -338.879297949     A.U. after   22 cycles
 SCF Done:  E(UB3LYP) =  -338.870343145     A.U. after   22 cycles
 SCF Done:  E(UB3LYP) =  -338.879441807     A.U. after   23 cycles
 SCF Done:  E(UB3LYP) =  -338.903190240     A.U. after   19 cycles
 SCF Done:  E(UB3LYP) =  -338.901006692     A.U. after   19 cycles
 SCF Done:  E(UB3LYP) =  -338.903822244     A.U. after   15 cycles
 SCF Done:  E(UB3LYP) =  -338.904433894     A.U. after   19 cycles
 SCF Done:  E(UB3LYP) =  -338.904959498     A.U. after   19 cycles
 SCF Done:  E(UB3LYP) =  -338.905049329     A.U. after   14 cycles
 SCF Done:  E(UB3LYP) =  -338.905043104     A.U. after   17 cycles
 SCF Done:  E(UB3LYP) =  -338.905084465     A.U. after   19 cycles
 SCF Done:  E(UB3LYP) =  -338.905089707     A.U. after   13 cycles
 Optimization completed.
    -- Stationary point found.
 Normal termination of Gaussian 09 at Tue Mar  6 07:25:58 2018.

 ----------------------------------------------------------------------
 #P Geom=AllCheck Guess=TCheck SCRF=Check GenChk UB3LYP/Aug-CC-pVDZ Fre
 q
 ----------------------------------------------------------------------

 Furan-2-N2-UB3LYP-aug-cc-pVDZ-Duplet
 ------------------------------------
 Redundant internal coordinates taken from checkpoint file:
 Furan-2-N2-UB3LYP-aug-cc-pVDZ-Duplet.chk
 Charge =  0 Multiplicity = 2

                         Standard orientation:
 ---------------------------------------------------------------------
 Center     Atomic      Atomic             Coordinates (Angstroms)
 Number     Number       Type             X           Y           Z
 ---------------------------------------------------------------------
      1          7           0        1.692443   -0.461856    0.000150
      2          7           0        2.616713    0.292434   -0.000242
      3          6           0        0.342462   -0.072198   -0.000221
      4          6           0       -0.320848    1.129400    0.000036
      5          1           0        0.140667    2.110698    0.000849
      6          6           0       -1.710795    0.801567    0.000057
      7          1           0       -2.550244    1.489222    0.000241
      8          6           0       -1.782673   -0.566647   -0.000460
      9          1           0       -2.609092   -1.267232   -0.000478
     10          8           0       -0.539288   -1.112433    0.000444
 ---------------------------------------------------------------------

 SCF Done:  E(UB3LYP) =  -338.905089707     A.U. after    1 cycles

 The electronic state is 2-A.
 Alpha  occ. eigenvalues --  -19.24682 -14.42908 -14.40425 -10.29989 -10.27029
 Alpha  occ. eigenvalues --  -10.22474 -10.21972  -1.15430  -1.07750  -0.83739
 Alpha  occ. eigenvalues --   -0.81379  -0.69458  -0.63515  -0.58269  -0.52741
 Alpha  occ. eigenvalues --   -0.49887  -0.49105  -0.44927  -0.43503  -0.43113
 Alpha  occ. eigenvalues --   -0.42002  -0.40716  -0.31453  -0.26225  -0.21935
 Alpha virt. eigenvalues --   -0.08632  -0.01154  -0.00490   0.00568   0.01372
 Alpha virt. eigenvalues --    0.03667   0.04211   0.04824   0.05231   0.05875
 Alpha virt. eigenvalues --    0.07996   0.08405   0.08505   0.08598   0.09194

  Beta  occ. eigenvalues --  -19.24696 -14.42542 -14.38783 -10.29637 -10.27065
  Beta  occ. eigenvalues --  -10.22496 -10.21958  -1.15372  -1.05926  -0.83662
  Beta  occ. eigenvalues --   -0.80291  -0.68299  -0.63301  -0.58156  -0.52115
  Beta  occ. eigenvalues --   -0.49723  -0.46567  -0.43961  -0.42730  -0.42389
  Beta  occ. eigenvalues --   -0.41226  -0.37645  -0.31543  -0.25833
  Beta virt. eigenvalues --   -0.07577  -0.07287  -0.01103  -0.00389   0.00574
  Beta virt. eigenvalues --    0.01435   0.03717   0.04236   0.04894   0.05577
  Beta virt. eigenvalues --    0.05919   0.08003   0.08425   0.08583   0.08686

 Mulliken atomic charges:
              1
     1  N    0.093512
     2  N   -0.549764
     3  C   -0.190403
     4  C    1.436044
     5  H   -0.596605
     6  C    1.014796
     7  H   -0.549525
     8  C    0.277613
     9  H   -0.567837
    10  O   -0.367830
 Sum of Mulliken atomic charges =   0.00000

 Dipole moment (field-independent basis, Debye):
    X=             -3.5925    Y=              0.9693    Z=              0.0003  Tot=              3.7210
 Quadrupole moment (field-independent basis, Debye-Ang):
   XX=            -41.8143   YY=            -38.0844   ZZ=            -40.9600
   XY=              0.2574   XZ=              0.0009   YZ=              0.0045

  Exact polarizability: 100.296   2.504  62.179   0.000   0.001  39.631
 Approx polarizability: 162.881   8.072 106.617   0.000   0.004  58.918

                     1                      2                      3
                     A                      A                      A
 Frequencies --   149.9959               239.9149               265.5912
 Red. masses --     7.5345                 6.9492                 8.0802
 Frc consts  --     0.0999                 0.2357                 0.3358
 IR Inten    --     0.0698                 2.8936                 0.2081

                     4                      5                      6
                     A                      A                      A
 Frequencies --   506.9503               610.3892               637.6564
 Red. masses --    10.0812                 2.7309                 5.1847
 Frc consts  --     1.5265                 0.5995                 1.2421
 IR Inten    --     6.3150                 8.2233                 3.5308

                     7                      8                      9
                     A                      A                      A
 Frequencies --   661.8884               754.0841               825.1820
 Red. masses --     9.2256                 1.2681                 1.3314
 Frc consts  --     2.3813                 0.4249                 0.5341
 IR Inten    --    23.0734                65.7763                 8.4014

                    10                     11                     12
                     A                      A                      A
 Frequencies --   880.2538               895.2763               953.4518
 Red. masses --     1.3932                 6.1005                 3.5673
 Frc consts  --     0.6361                 2.8809                 1.9107
 IR Inten    --     1.3252                 4.5557                14.0830

                    13                     14                     15
                     A                      A                      A
 Frequencies --  1024.8122              1093.9451              1175.4664
 Red. masses --     1.3074                 2.4122                 2.1391
 Frc consts  --     0.8090                 1.7008                 1.7414
 IR Inten    --    30.6758                13.1152                 9.5987

                    16                     17                     18
                     A                      A                      A
 Frequencies --  1227.7522              1248.5722              1413.8915
 Red. masses --     9.4527                 1.6293                 3.2966
 Frc consts  --     8.3951                 1.4965                 3.8828
 IR Inten    --     9.6919                 8.4024                 4.1453

                    19                     20                     21
                     A                      A                      A
 Frequencies --  1480.6680              1583.4313              1804.6272
 Red. masses --     4.4930                 5.4432                13.9015
 Frc consts  --     5.8037                 8.0409                26.6738
 IR Inten    --    59.6424                 3.9497                46.0808

                    22                     23                     24
                     A                      A                      A
 Frequencies --  3255.3129              3272.8568              3290.4694
 Red. masses --     1.0920                 1.0995                 1.1054
 Frc consts  --     6.8178                 6.9392                 7.0515
 IR Inten    --     1.0526                 1.7448                 0.3365

 - Thermochemistry -
 -------------------
 Temperature   298.150 Kelvin.  Pressure   1.00000 Atm.
 Atom     1 has atomic number  7 and mass  14.00307

 Molecular mass:    95.02454 amu.
 Principal axes and moments of inertia in atomic units:
                           1         2         3
     Eigenvalues --   211.39782 820.331221031.72898
           X            1.00000  -0.00183   0.00000
           Y            0.00183   1.00000   0.00005
           Z            0.00000  -0.00005   1.00000
 This molecule is an asymmetric top.
 Rotational symmetry number  1.
 Rotational temperatures (Kelvin)      0.40972     0.10558     0.08395
 Rotational constants (GHZ):           8.53718     2.20002     1.74924
 Zero-point vibrational energy     174968.4 (Joules/Mol)
                                   41.81846 (Kcal/Mol)
 Warning -- explicit consideration of   5 degrees of freedom as
           vibrations may cause significant error
 Vibrational temperatures:    215.81   345.18   382.13   729.39   878.21
          (Kelvin)            917.44   952.31  1084.96  1187.25  1266.49
                             1288.10  1371.80  1474.47  1573.94  1691.23
                             1766.46  1796.41  2034.27  2130.35  2278.20
                             2596.45  4683.66  4708.91  4734.25

 Zero-point correction=                           0.066642 (Hartree/Particle)
 Thermal correction to Energy=                    0.072171
 Thermal correction to Enthalpy=                  0.073115
 Thermal correction to Gibbs Free Energy=         0.036676
 Sum of electronic and zero-point Energies=           -338.838448
 Sum of electronic and thermal Energies=              -338.832919
 Sum of electronic and thermal Enthalpies=            -338.831974
 Sum of electronic and thermal Free Energies=         -338.868414

                     E (Thermal)             CV                S
                      KCal/Mol        Cal/Mol-Kelvin    Cal/Mol-Kelvin
 Total                   45.288             19.768             76.693
 Electronic               0.000              0.000              1.377
 Translational            0.889              2.981             39.566
 Rotational               0.889              2.981             26.684
 Vibrational             43.511             13.806              9.066
 Vibration     1          0.618              1.903              2.672
 Vibration     2          0.657              1.779              1.804
 Vibration     3          0.671              1.736              1.625
 Vibration     4          0.862              1.235              0.641
 Vibration     5          0.969              1.010              0.432

 Optimization completed.
    -- Stationary point found.
 Normal termination of Gaussian 09 at Tue Mar  6 07:29:41 2018.
