 Gaussian 09, Revision B.01,
 Gaussian 09:  EM64L-G09RevB.01 12-Aug-2010

 -------------------------------------------------
 #p Temperature=298.15 opt freq UB3LYP/aug-cc-pVDZ
 -------------------------------------------------

 -----------------------------------
 Furan-2+-UB3LYP-aug-cc-pVDZ-Singlet
 -----------------------------------
 Symbolic Z-matrix:
 Charge =  1 Multiplicity = 1

 SCF Done:  E(UB3LYP) =  -228.959732972     A.U. after   19 cycles
 SCF Done:  E(UB3LYP) =  -228.992164886     A.U. after   15 cycles
 SCF Done:  E(UB3LYP) =  -229.000646360     A.U. after   18 cycles
 SCF Done:  E(UB3LYP) =  -229.002091843     A.U. after   12 cycles
 SCF Done:  E(UB3LYP) =  -229.002799142     A.U. after   12 cycles
 SCF Done:  E(UB3LYP) =  -229.003064549     A.U. after   12 cycles
 SCF Done:  E(UB3LYP) =  -229.003149483     A.U. after   12 cycles
 SCF Done:  E(UB3LYP) =  -229.003181171     A.U. after   15 cycles
 SCF Done:  E(UB3LYP) =  -229.003188510     A.U. after   10 cycles
 SCF Done:  E(UB3LYP) =  -229.003191140     A.U. after   10 cycles
 SCF Done:  E(UB3LYP) =  -229.003192242     A.U. after   10 cycles
 Optimization completed.
    -- Stationary point found.
 Normal termination of Gaussian 09 at Tue Mar  6 04:45:02 2018.

 ----------------------------------------------------------------------
 #P Geom=AllCheck Guess=TCheck SCRF=Check GenChk UB3LYP/Aug-CC-pVDZ Fre
 q
 ----------------------------------------------------------------------

 Furan-2+-UB3LYP-aug-cc-pVDZ-Singlet
 -----------------------------------
 Redundant internal coordinates taken from checkpoint file:
 Furan-2+-UB3LYP-aug-cc-pVDZ-Singlet.chk
 Charge =  1 Multiplicity = 1

                         Standard orientation:
 ---------------------------------------------------------------------
 Center     Atomic      Atomic             Coordinates (Angstroms)
 Number     Number       Type             X           Y           Z
 ---------------------------------------------------------------------
      1          6           0       -0.100829   -1.075076    0.250547
      2          6           0       -1.219229   -0.333801   -0.130388
      3          1           0       -2.265792   -0.625567   -0.158027
      4          6           0       -0.625729    0.933754    0.014582
      5          1           0       -1.132502    1.872342    0.239270
      6          6           0        0.788293    0.757618   -0.019459
      7          1           0        1.608092    1.443529    0.196423
      8          8           0        1.091896   -0.548159   -0.121169
 ---------------------------------------------------------------------

 SCF Done:  E(UB3LYP) =  -229.003192242     A.U. after    1 cycles

 The electronic state is 1-A.
 Alpha  occ. eigenvalues --  -19.50821 -10.57242 -10.55494 -10.48722 -10.48334
 Alpha  occ. eigenvalues --   -1.42129  -1.10261  -1.00744  -0.87209  -0.83333
 Alpha  occ. eigenvalues --   -0.78890  -0.73937  -0.69854  -0.68259  -0.65625
 Alpha  occ. eigenvalues --   -0.55821  -0.51432
 Alpha virt. eigenvalues --   -0.40165  -0.28376  -0.23128  -0.15486  -0.13425
 Alpha virt. eigenvalues --   -0.12575  -0.11423  -0.10966  -0.10893  -0.08509
 Alpha virt. eigenvalues --   -0.07013  -0.06246  -0.05822  -0.05248  -0.03019

  Beta  occ. eigenvalues --  -19.50821 -10.57242 -10.55494 -10.48722 -10.48334
  Beta  occ. eigenvalues --   -1.42129  -1.10261  -1.00744  -0.87209  -0.83333
  Beta  occ. eigenvalues --   -0.78890  -0.73937  -0.69854  -0.68259  -0.65625
  Beta  occ. eigenvalues --   -0.55821  -0.51432
  Beta virt. eigenvalues --   -0.40165  -0.28376  -0.23128  -0.15486  -0.13425
  Beta virt. eigenvalues --   -0.12575  -0.11423  -0.10966  -0.10893  -0.08509
  Beta virt. eigenvalues --   -0.07013  -0.06246  -0.05822  -0.05248  -0.03019

 Mulliken atomic charges:
              1
     1  C    0.027003
     2  C    0.706914
     3  H   -0.354513
     4  C    1.007459
     5  H   -0.395471
     6  C    0.652226
     7  H   -0.330098
     8  O   -0.313520
 Sum of Mulliken atomic charges =   1.00000

 Dipole moment (field-independent basis, Debye):
    X=             -1.2695    Y=              1.9539    Z=             -0.1234  Tot=              2.3334
 Quadrupole moment (field-independent basis, Debye-Ang):
   XX=            -17.1251   YY=            -18.6518   ZZ=            -27.3907
   XY=              2.6567   XZ=              0.6463   YZ=              1.6838

  Exact polarizability:  46.192   3.596  54.105   0.688  -2.856  26.917
 Approx polarizability:  79.823   8.826 133.476   1.164 -12.527  43.078

                     1                      2                      3
                     A                      A                      A
 Frequencies --   457.2642               542.7168               574.7775
 Red. masses --     2.5760                 3.7377                 5.5067
 Frc consts  --     0.3173                 0.6486                 1.0719
 IR Inten    --     3.2885               100.0283                19.1387

                     4                      5                      6
                     A                      A                      A
 Frequencies --   672.6299               793.2086               860.7269
 Red. masses --     2.4629                 2.6533                 1.7449
 Frc consts  --     0.6565                 0.9836                 0.7616
 IR Inten    --    33.5182                36.2436                19.8117

                     7                      8                      9
                     A                      A                      A
 Frequencies --   925.7357               946.0710              1060.0448
 Red. masses --     1.8113                 2.0939                 1.3637
 Frc consts  --     0.9146                 1.1042                 0.9029
 IR Inten    --    19.2747                23.9221                16.6103

                    10                     11                     12
                     A                      A                      A
 Frequencies --  1070.7914              1177.9882              1207.6242
 Red. masses --     1.5251                 3.9687                 1.6355
 Frc consts  --     1.0303                 3.2447                 1.4053
 IR Inten    --     8.2428                33.3726                13.5111

                    13                     14                     15
                     A                      A                      A
 Frequencies --  1294.3730              1404.8967              1432.6957
 Red. masses --     4.6079                 2.6251                 3.2153
 Frc consts  --     4.5486                 3.0527                 3.8885
 IR Inten    --    70.9577                83.9349                 5.6557

                    16                     17                     18
                     A                      A                      A
 Frequencies --  3224.2290              3239.8873              3269.9842
 Red. masses --     1.0946                 1.1026                 1.1043
 Frc consts  --     6.7046                 6.8191                 6.9569
 IR Inten    --    26.4113                55.0221                59.4194

 - Thermochemistry -
 -------------------
 Temperature   298.150 Kelvin.  Pressure   1.00000 Atm.
 Atom     1 has atomic number  6 and mass  12.00000

 Molecular mass:    67.01839 amu.
 Principal axes and moments of inertia in atomic units:
                           1         2         3
     Eigenvalues --   158.72422 213.08056 362.51929
           X            0.99490   0.10063   0.00743
           Y           -0.10076   0.99471   0.02016
           Z           -0.00536  -0.02080   0.99977
 This molecule is an asymmetric top.
 Rotational symmetry number  1.
 Rotational temperatures (Kelvin)      0.54569     0.40648     0.23892
 Rotational constants (GHZ):          11.37029     8.46976     4.97833
 Zero-point vibrational energy     144482.8 (Joules/Mol)
                                   34.53223 (Kcal/Mol)
 Warning -- explicit consideration of   3 degrees of freedom as
           vibrations may cause significant error
 Vibrational temperatures:    657.90   780.85   826.98   967.76  1141.25
          (Kelvin)           1238.39  1331.93  1361.18  1525.17  1540.63
                             1694.86  1737.50  1862.31  2021.33  2061.33
                             4638.94  4661.47  4704.77

 Zero-point correction=                           0.055031 (Hartree/Particle)
 Thermal correction to Energy=                    0.058968
 Thermal correction to Enthalpy=                  0.059912
 Thermal correction to Gibbs Free Energy=         0.028733
 Sum of electronic and zero-point Energies=           -228.948162
 Sum of electronic and thermal Energies=              -228.944224
 Sum of electronic and thermal Enthalpies=            -228.943280
 Sum of electronic and thermal Free Energies=         -228.974460

                     E (Thermal)             CV                S
                      KCal/Mol        Cal/Mol-Kelvin    Cal/Mol-Kelvin
 Total                   37.003             13.945             65.623
 Electronic               0.000              0.000              0.000
 Translational            0.889              2.981             38.525
 Rotational               0.889              2.981             24.020
 Vibrational             35.226              7.984              3.077
 Vibration     1          0.815              1.345              0.774
 Vibration     2          0.898              1.156              0.559
 Vibration     3          0.931              1.086              0.495

 Optimization completed.
    -- Stationary point found.
 Normal termination of Gaussian 09 at Tue Mar  6 04:46:12 2018.
