 Gaussian 09, Revision B.01,
 Gaussian 09:  EM64L-G09RevB.01 12-Aug-2010

 -------------------------------------------------
 #p Temperature=298.15 opt freq UB3LYP/aug-cc-pVDZ
 -------------------------------------------------

 --------------------------------------
 Furan-3-N2+-UB3LYP-aug-cc-pVDZ-Singlet
 --------------------------------------
 Symbolic Z-matrix:
 Charge =  1 Multiplicity = 1

 SCF Done:  E(UB3LYP) =  -338.621665852     A.U. after   16 cycles
 SCF Done:  E(UB3LYP) =  -338.642290084     A.U. after   13 cycles
 SCF Done:  E(UB3LYP) =  -338.644543500     A.U. after   13 cycles
 SCF Done:  E(UB3LYP) =  -338.642780535     A.U. after   14 cycles
 SCF Done:  E(UB3LYP) =  -338.644831284     A.U. after   14 cycles
 SCF Done:  E(UB3LYP) =  -338.644938252     A.U. after   11 cycles
 SCF Done:  E(UB3LYP) =  -338.644946001     A.U. after   10 cycles
 SCF Done:  E(UB3LYP) =  -338.644947041     A.U. after   10 cycles
 SCF Done:  E(UB3LYP) =  -338.644948344     A.U. after   17 cycles
 Optimization completed.
    -- Stationary point found.
 Normal termination of Gaussian 09 at Tue Mar  6 04:53:12 2018.

 ----------------------------------------------------------------------
 #P Geom=AllCheck Guess=TCheck SCRF=Check GenChk UB3LYP/Aug-CC-pVDZ Fre
 q
 ----------------------------------------------------------------------

 Furan-3-N2+-UB3LYP-aug-cc-pVDZ-Singlet
 --------------------------------------
 Redundant internal coordinates taken from checkpoint file:
 Furan-3-N2+-UB3LYP-aug-cc-pVDZ-Singlet.chk
 Charge =  1 Multiplicity = 1

                         Standard orientation:
 ---------------------------------------------------------------------
 Center     Atomic      Atomic             Coordinates (Angstroms)
 Number     Number       Type             X           Y           Z
 ---------------------------------------------------------------------
      1          7           0        1.692808    0.009508    0.000012
      2          7           0        2.808454    0.024016   -0.000022
      3          6           0        0.337282    0.023623    0.000041
      4          6           0       -0.525349    1.183435   -0.000040
      5          1           0       -0.237272    2.229088   -0.000193
      6          6           0       -1.773819    0.654888    0.000113
      7          1           0       -2.768166    1.086573    0.000202
      8          6           0       -0.458120   -1.118487    0.000064
      9          1           0       -0.233792   -2.181086    0.000176
     10          8           0       -1.718696   -0.728750   -0.000148
 ---------------------------------------------------------------------

 SCF Done:  E(UB3LYP) =  -338.644948344     A.U. after    2 cycles

 The electronic state is 1-A.
 Alpha  occ. eigenvalues --  -19.45156 -14.74733 -14.70784 -10.49978 -10.49475
 Alpha  occ. eigenvalues --  -10.45796 -10.42053  -1.39823  -1.35661  -1.11959
 Alpha  occ. eigenvalues --   -1.00236  -0.95427  -0.83393  -0.79173  -0.75147
 Alpha  occ. eigenvalues --   -0.73670  -0.72311  -0.70161  -0.68149  -0.65644
 Alpha  occ. eigenvalues --   -0.63786  -0.59827  -0.52603  -0.46644
 Alpha virt. eigenvalues --   -0.30826  -0.30216  -0.20913  -0.15546  -0.14255
 Alpha virt. eigenvalues --   -0.12600  -0.12223  -0.10977  -0.10499  -0.09910
 Alpha virt. eigenvalues --   -0.09271  -0.06042  -0.05759  -0.05740  -0.05189

  Beta  occ. eigenvalues --  -19.45156 -14.74733 -14.70784 -10.49978 -10.49475
  Beta  occ. eigenvalues --  -10.45796 -10.42053  -1.39823  -1.35661  -1.11959
  Beta  occ. eigenvalues --   -1.00236  -0.95427  -0.83393  -0.79173  -0.75147
  Beta  occ. eigenvalues --   -0.73670  -0.72311  -0.70161  -0.68149  -0.65644
  Beta  occ. eigenvalues --   -0.63786  -0.59827  -0.52603  -0.46644
  Beta virt. eigenvalues --   -0.30826  -0.30216  -0.20913  -0.15546  -0.14255
  Beta virt. eigenvalues --   -0.12600  -0.12223  -0.10977  -0.10499  -0.09910
  Beta virt. eigenvalues --   -0.09271  -0.06042  -0.05759  -0.05740  -0.05189

 Mulliken atomic charges:
              1
     1  N    0.487679
     2  N   -0.442543
     3  C    0.390980
     4  C    1.547029
     5  H   -0.546043
     6  C    0.180961
     7  H   -0.474167
     8  C    0.659815
     9  H   -0.518562
    10  O   -0.285149
 Sum of Mulliken atomic charges =   1.00000

 Dipole moment (field-independent basis, Debye):
    X=              1.1242    Y=              0.2269    Z=              0.0003  Tot=              1.1469
 Quadrupole moment (field-independent basis, Debye-Ang):
   XX=            -22.7171   YY=            -26.7958   ZZ=            -37.8841
   XY=             -2.7395   XZ=             -0.0008   YZ=             -0.0009

  Exact polarizability:  91.442   0.465  55.100  -0.001   0.000  32.839
 Approx polarizability: 179.817  12.851  91.296  -0.003  -0.001  49.071

                     1                      2                      3
                     A                      A                      A
 Frequencies --   173.4125               187.2188               508.6309
 Red. masses --     7.6067                 6.9243                 8.3317
 Frc consts  --     0.1348                 0.1430                 1.2700
 IR Inten    --     0.1529                 1.5656                 0.6056

                     4                      5                      6
                     A                      A                      A
 Frequencies --   543.5539               568.6488               590.7109
 Red. masses --     8.2028                 9.1397                 3.2789
 Frc consts  --     1.4279                 1.7413                 0.6741
 IR Inten    --     0.7230                 6.3379                 9.9723

                     7                      8                      9
                     A                      A                      A
 Frequencies --   603.2450               755.1668               854.9841
 Red. masses --     3.6021                 1.2345                 1.4690
 Frc consts  --     0.7723                 0.4148                 0.6327
 IR Inten    --    22.4317                36.0312                29.2918

                    10                     11                     12
                     A                      A                      A
 Frequencies --   870.6471               874.9304               974.2568
 Red. masses --     6.1963                 1.3802                 4.6770
 Frc consts  --     2.7674                 0.6225                 2.6155
 IR Inten    --    16.9819                 0.6947                 7.2663

                    13                     14                     15
                     A                      A                      A
 Frequencies --  1003.0934              1113.8876              1191.7521
 Red. masses --     2.8039                 1.2788                 2.5745
 Frc consts  --     1.6622                 0.9348                 2.1544
 IR Inten    --    10.9784                 9.0000               140.8311

                    16                     17                     18
                     A                      A                      A
 Frequencies --  1256.1329              1329.0787              1382.3895
 Red. masses --     1.2526                 8.0990                 4.0782
 Frc consts  --     1.1645                 8.4292                 4.5918
 IR Inten    --     1.7282                 2.1218                 0.9289

                    19                     20                     21
                     A                      A                      A
 Frequencies --  1506.6078              1566.6601              2341.0332
 Red. masses --     3.9618                 4.9933                13.9585
 Frc consts  --     5.2984                 7.2209                45.0717
 IR Inten    --   156.6602                 5.1209               207.6752

                    22                     23                     24
                     A                      A                      A
 Frequencies --  3273.4344              3274.0748              3300.3969
 Red. masses --     1.1022                 1.0956                 1.1103
 Frc consts  --     6.9585                 6.9195                 7.1257
 IR Inten    --    56.8428                21.4144                28.9326

 - Thermochemistry -
 -------------------
 Temperature   298.150 Kelvin.  Pressure   1.00000 Atm.
 Atom     1 has atomic number  7 and mass  14.00307

 Molecular mass:    95.02454 amu.
 Principal axes and moments of inertia in atomic units:
                           1         2         3
     Eigenvalues --   201.43219 894.720921096.15311
           X            0.99988  -0.01564   0.00000
           Y            0.01564   0.99988  -0.00001
           Z            0.00000   0.00001   1.00000
 This molecule is an asymmetric top.
 Rotational symmetry number  1.
 Rotational temperatures (Kelvin)      0.42999     0.09681     0.07902
 Rotational constants (GHZ):           8.95955     2.01710     1.64643
 Zero-point vibrational energy     179702.7 (Joules/Mol)
                                   42.94998 (Kcal/Mol)
 Warning -- explicit consideration of   7 degrees of freedom as
           vibrations may cause significant error
 Vibrational temperatures:    249.50   269.37   731.81   782.05   818.16
          (Kelvin)            849.90   867.93  1086.52  1230.13  1252.67
                             1258.83  1401.74  1443.23  1602.63  1714.66
                             1807.29  1912.25  1988.95  2167.67  2254.07
                             3368.22  4709.74  4710.66  4748.53

 Zero-point correction=                           0.068445 (Hartree/Particle)
 Thermal correction to Energy=                    0.073809
 Thermal correction to Enthalpy=                  0.074753
 Thermal correction to Gibbs Free Energy=         0.039245
 Sum of electronic and zero-point Energies=           -338.576503
 Sum of electronic and thermal Energies=              -338.571139
 Sum of electronic and thermal Enthalpies=            -338.570195
 Sum of electronic and thermal Free Energies=         -338.605703

                     E (Thermal)             CV                S
                      KCal/Mol        Cal/Mol-Kelvin    Cal/Mol-Kelvin
 Total                   46.316             19.435             74.733
 Electronic               0.000              0.000              0.000
 Translational            0.889              2.981             39.566
 Rotational               0.889              2.981             26.782
 Vibrational             44.539             13.473              8.385
 Vibration     1          0.627              1.875              2.398
 Vibration     2          0.632              1.857              2.255
 Vibration     3          0.864              1.231              0.637
 Vibration     4          0.899              1.154              0.558
 Vibration     5          0.925              1.099              0.507
 Vibration     6          0.948              1.052              0.466
 Vibration     7          0.962              1.025              0.444

 Optimization completed.
    -- Stationary point found.
 Normal termination of Gaussian 09 at Tue Mar  6 04:56:46 2018.
