 Gaussian 09, Revision B.01,
 Gaussian 09:  EM64L-G09RevB.01 12-Aug-2010

 -------------------------------------------------
 #p Temperature=298.15 opt freq UB3LYP/aug-cc-pVDZ
 -------------------------------------------------

 ---------------------------------
 Furan-3-UB3LYP-aug-cc-pVDZ-Duplet
 ---------------------------------
 Symbolic Z-matrix:
 Charge =  0 Multiplicity = 2

 SCF Done:  E(UB3LYP) =  -229.336305734     A.U. after   18 cycles
 SCF Done:  E(UB3LYP) =  -229.351249673     A.U. after   17 cycles
 SCF Done:  E(UB3LYP) =  -229.352748447     A.U. after   15 cycles
 SCF Done:  E(UB3LYP) =  -229.352802421     A.U. after   17 cycles
 SCF Done:  E(UB3LYP) =  -229.352802933     A.U. after   17 cycles
 SCF Done:  E(UB3LYP) =  -229.352809879     A.U. after   17 cycles
 Optimization completed.
    -- Stationary point found.
 Normal termination of Gaussian 09 at Tue Mar  6 08:09:18 2018.

 ----------------------------------------------------------------------
 #P Geom=AllCheck Guess=TCheck SCRF=Check GenChk UB3LYP/Aug-CC-pVDZ Fre
 q
 ----------------------------------------------------------------------

 Furan-3-UB3LYP-aug-cc-pVDZ-Duplet
 ---------------------------------
 Redundant internal coordinates taken from checkpoint file:
 Furan-3-UB3LYP-aug-cc-pVDZ-Duplet.chk
 Charge =  0 Multiplicity = 2

                         Standard orientation:
 ---------------------------------------------------------------------
 Center     Atomic      Atomic             Coordinates (Angstroms)
 Number     Number       Type             X           Y           Z
 ---------------------------------------------------------------------
      1          6           0       -0.115416   -1.226671    0.000033
      2          6           0        1.124186   -0.521085   -0.000218
      3          1           0        2.134451   -0.914500   -0.000446
      4          6           0        0.749348    0.795109    0.000429
      5          1           0        1.310708    1.722649    0.000668
      6          6           0       -1.145454   -0.346354    0.000265
      7          1           0       -2.224364   -0.421847    0.000337
      8          8           0       -0.612098    0.925962   -0.000452
 ---------------------------------------------------------------------

 SCF Done:  E(UB3LYP) =  -229.352809879     A.U. after    1 cycles

 The electronic state is 2-A.
 Alpha  occ. eigenvalues --  -19.22774 -10.25329 -10.24828 -10.22803 -10.20673
 Alpha  occ. eigenvalues --   -1.12407  -0.82040  -0.75954  -0.60496  -0.58214
 Alpha  occ. eigenvalues --   -0.53400  -0.46159  -0.45451  -0.43075  -0.39099
 Alpha  occ. eigenvalues --   -0.30017  -0.29221  -0.24698
 Alpha virt. eigenvalues --   -0.01482  -0.00419   0.01058   0.01713   0.04001
 Alpha virt. eigenvalues --    0.04449   0.04674   0.05338   0.07004   0.08371
 Alpha virt. eigenvalues --    0.09520   0.09583   0.09870   0.10149   0.10651

  Beta  occ. eigenvalues --  -19.22629 -10.25234 -10.24850 -10.21201 -10.20627
  Beta  occ. eigenvalues --   -1.11980  -0.80586  -0.75418  -0.59761  -0.57710
  Beta  occ. eigenvalues --   -0.51725  -0.46058  -0.45134  -0.42389  -0.38409
  Beta  occ. eigenvalues --   -0.29172  -0.24440
  Beta virt. eigenvalues --   -0.12341  -0.01345  -0.00386   0.01077   0.01889
  Beta virt. eigenvalues --    0.04530   0.04869   0.05260   0.05686   0.07093
  Beta virt. eigenvalues --    0.08341   0.09623   0.09672   0.09921   0.10220

 Mulliken atomic charges:
              1
     1  C   -0.292243
     2  C    1.110286
     3  H   -0.467243
     4  C    0.378074
     5  H   -0.538565
     6  C    0.630072
     7  H   -0.476088
     8  O   -0.344292
 Sum of Mulliken atomic charges =   0.00000

 Dipole moment (field-independent basis, Debye):
    X=              0.5277    Y=              0.2784    Z=              0.0007  Tot=              0.5966
 Quadrupole moment (field-independent basis, Debye-Ang):
   XX=            -24.1177   YY=            -29.3057   ZZ=            -31.4011
   XY=              1.3760   XZ=             -0.0011   YZ=              0.0018

  Exact polarizability:  57.205   2.197  51.914  -0.001   0.004  34.633
 Approx polarizability:  89.403  -0.134  87.016  -0.004   0.010  48.494

                     1                      2                      3
                     A                      A                      A
 Frequencies --   536.5553               613.7871               698.6942
 Red. masses --     3.4655                 3.5360                 1.3565
 Frc consts  --     0.5878                 0.7849                 0.3902
 IR Inten    --    13.3823                11.4486                11.4771

                     4                      5                      6
                     A                      A                      A
 Frequencies --   758.1845               837.0353               860.7707
 Red. masses --     1.2888                 1.3413                 5.6908
 Frc consts  --     0.4365                 0.5537                 2.4843
 IR Inten    --    75.3284                 0.0918                21.3381

                     7                      8                      9
                     A                      A                      A
 Frequencies --   866.1696              1007.3519              1039.0545
 Red. masses --     6.8690                 2.1527                 2.0658
 Frc consts  --     3.0363                 1.2870                 1.3141
 IR Inten    --     1.4579                47.3036                 0.6429

                    10                     11                     12
                     A                      A                      A
 Frequencies --  1138.1012              1166.1155              1231.1874
 Red. masses --     6.0165                 1.9574                 1.2240
 Frc consts  --     4.5915                 1.5683                 1.0932
 IR Inten    --     5.3459                 5.5343                 4.5066

                    13                     14                     15
                     A                      A                      A
 Frequencies --  1370.6692              1489.9563              1544.1158
 Red. masses --     2.6888                 3.9570                 5.8159
 Frc consts  --     2.9763                 5.1756                 8.1701
 IR Inten    --     1.6904                16.4701                 0.5602

                    16                     17                     18
                     A                      A                      A
 Frequencies --  3263.3214              3284.0427              3306.4611
 Red. masses --     1.0894                 1.1062                 1.1000
 Frc consts  --     6.8354                 7.0289                 7.0858
 IR Inten    --     0.9691                 0.2210                 1.9985

 - Thermochemistry -
 -------------------
 Temperature   298.150 Kelvin.  Pressure   1.00000 Atm.
 Atom     1 has atomic number  6 and mass  12.00000

 Molecular mass:    67.01839 amu.
 Principal axes and moments of inertia in atomic units:
                           1         2         3
     Eigenvalues --   170.88869 197.48298 368.37162
           X            0.98566   0.16875  -0.00001
           Y           -0.16875   0.98566   0.00003
           Z            0.00002  -0.00003   1.00000
 This molecule is an asymmetric top.
 Rotational symmetry number  1.
 Rotational temperatures (Kelvin)      0.50684     0.43859     0.23513
 Rotational constants (GHZ):          10.56092     9.13872     4.89924
 Zero-point vibrational energy     149602.4 (Joules/Mol)
                                   35.75584 (Kcal/Mol)
 Warning -- explicit consideration of   2 degrees of freedom as
           vibrations may cause significant error
 Vibrational temperatures:    771.98   883.10  1005.26  1090.86  1204.31
          (Kelvin)           1238.46  1246.22  1449.35  1494.97  1637.47
                             1677.78  1771.40  1972.08  2143.71  2221.64
                             4695.19  4725.00  4757.25

 Zero-point correction=                           0.056981 (Hartree/Particle)
 Thermal correction to Energy=                    0.060701
 Thermal correction to Enthalpy=                  0.061646
 Thermal correction to Gibbs Free Energy=         0.030125
 Sum of electronic and zero-point Energies=           -229.295829
 Sum of electronic and thermal Energies=              -229.292108
 Sum of electronic and thermal Enthalpies=            -229.291164
 Sum of electronic and thermal Free Energies=         -229.322685

                     E (Thermal)             CV                S
                      KCal/Mol        Cal/Mol-Kelvin    Cal/Mol-Kelvin
 Total                   38.091             13.009             66.340
 Electronic               0.000              0.000              1.377
 Translational            0.889              2.981             38.525
 Rotational               0.889              2.981             24.034
 Vibrational             36.313              7.048              2.403
 Vibration     1          0.892              1.169              0.573
 Vibration     2          0.973              1.003              0.427

 Optimization completed.
    -- Stationary point found.
 Normal termination of Gaussian 09 at Tue Mar  6 08:10:30 2018.
