 Gaussian 09, Revision B.01,
 Gaussian 09:  EM64L-G09RevB.01 12-Aug-2010

 -------------------------------------------------
 #p Temperature=298.15 opt freq UB3LYP/aug-cc-pVDZ
 -------------------------------------------------

 --------------------------------------
 Furan-2-N2+-UB3LYP-aug-cc-pVDZ-Triplet
 --------------------------------------
 Symbolic Z-matrix:
 Charge =  1 Multiplicity = 3

 SCF Done:  E(UB3LYP) =  -338.530523552     A.U. after   22 cycles
 SCF Done:  E(UB3LYP) =  -338.550353669     A.U. after   19 cycles
 SCF Done:  E(UB3LYP) =  -338.553244504     A.U. after   19 cycles
 SCF Done:  E(UB3LYP) =  -338.553387920     A.U. after   22 cycles
 SCF Done:  E(UB3LYP) =  -338.553672404     A.U. after   22 cycles
 SCF Done:  E(UB3LYP) =  -338.553752916     A.U. after   18 cycles
 SCF Done:  E(UB3LYP) =  -338.553808298     A.U. after   17 cycles
 SCF Done:  E(UB3LYP) =  -338.553987951     A.U. after   17 cycles
 SCF Done:  E(UB3LYP) =  -338.552150251     A.U. after   20 cycles
 SCF Done:  E(UB3LYP) =  -338.554090644     A.U. after   19 cycles
 SCF Done:  E(UB3LYP) =  -338.571023945     A.U. after   15 cycles
 SCF Done:  E(UB3LYP) =  -338.571204089     A.U. after   20 cycles
 SCF Done:  E(UB3LYP) =  -338.571300064     A.U. after   15 cycles
 SCF Done:  E(UB3LYP) =  -338.571367350     A.U. after   15 cycles
 SCF Done:  E(UB3LYP) =  -338.571432995     A.U. after   15 cycles
 SCF Done:  E(UB3LYP) =  -338.571475939     A.U. after   15 cycles
 SCF Done:  E(UB3LYP) =  -338.571488994     A.U. after   18 cycles
 SCF Done:  E(UB3LYP) =  -338.571492952     A.U. after   14 cycles
 SCF Done:  E(UB3LYP) =  -338.571493647     A.U. after   24 cycles
 Optimization completed.
    -- Stationary point found.
 Normal termination of Gaussian 09 at Thu Jan 20 23:12:12 2005.

 ----------------------------------------------------------------------
 #P Geom=AllCheck Guess=TCheck SCRF=Check GenChk UB3LYP/Aug-CC-pVDZ Fre
 q
 ----------------------------------------------------------------------

 Furan-2-N2+-UB3LYP-aug-cc-pVDZ-Triplet
 --------------------------------------
 Redundant internal coordinates taken from checkpoint file:
 Furan-2-N2+-UB3LYP-aug-cc-pVDZ-Triplet.chk
 Charge =  1 Multiplicity = 3

                         Standard orientation:
 ---------------------------------------------------------------------
 Center     Atomic      Atomic             Coordinates (Angstroms)
 Number     Number       Type             X           Y           Z
 ---------------------------------------------------------------------
      1          7           0       -1.688732    0.528144    0.000091
      2          7           0       -2.522025   -0.344987   -0.000189
      3          6           0       -0.333286    0.264851    0.000359
      4          6           0        0.742815    1.190156   -0.000265
      5          1           0        0.630303    2.271543   -0.000118
      6          6           0        1.898866    0.429782    0.000098
      7          1           0        2.931808    0.768328    0.000308
      8          6           0        1.477426   -0.927088   -0.000326
      9          1           0        2.036444   -1.862562    0.000212
     10          8           0        0.145228   -1.025702    0.000136
 ---------------------------------------------------------------------

 SCF Done:  E(UB3LYP) =  -338.571493647     A.U. after    1 cycles

 The electronic state is 3-A.
 Alpha  occ. eigenvalues --  -19.48510 -14.63676 -14.63047 -10.57090 -10.54511
 Alpha  occ. eigenvalues --  -10.46607 -10.46176  -1.40132  -1.29265  -1.08472
 Alpha  occ. eigenvalues --   -1.04833  -0.93286  -0.87111  -0.81334  -0.76200
 Alpha  occ. eigenvalues --   -0.74166  -0.68755  -0.67955  -0.66697  -0.64917
 Alpha  occ. eigenvalues --   -0.64693  -0.61401  -0.55192  -0.51058  -0.43560
 Alpha virt. eigenvalues --   -0.31945  -0.22984  -0.18569  -0.16167  -0.14135
 Alpha virt. eigenvalues --   -0.12434  -0.11502  -0.10760  -0.10102  -0.08466
 Alpha virt. eigenvalues --   -0.06756  -0.06182  -0.06171  -0.05700  -0.03987

  Beta  occ. eigenvalues --  -19.48612 -14.63539 -14.60851 -10.56019 -10.53847
  Beta  occ. eigenvalues --  -10.46604 -10.46061  -1.39703  -1.26985  -1.07728
  Beta  occ. eigenvalues --   -1.02214  -0.91327  -0.86352  -0.80903  -0.75282
  Beta  occ. eigenvalues --   -0.72116  -0.67525  -0.66400  -0.64278  -0.63738
  Beta  occ. eigenvalues --   -0.62798  -0.57794  -0.54359
  Beta virt. eigenvalues --   -0.40929  -0.27970  -0.27374  -0.20339  -0.15879
  Beta virt. eigenvalues --   -0.15862  -0.13770  -0.12363  -0.11324  -0.10526
  Beta virt. eigenvalues --   -0.09818  -0.08245  -0.06187  -0.05916  -0.05837

 Mulliken atomic charges:
              1
     1  N    0.080534
     2  N   -0.336275
     3  C    0.232621
     4  C    1.275918
     5  H   -0.483339
     6  C    1.062145
     7  H   -0.432928
     8  C    0.314338
     9  H   -0.408319
    10  O   -0.304694
 Sum of Mulliken atomic charges =   1.00000

 Dipole moment (field-independent basis, Debye):
    X=              5.2891    Y=              0.6195    Z=              0.0005  Tot=              5.3253
 Quadrupole moment (field-independent basis, Debye-Ang):
   XX=            -23.0424   YY=            -28.8065   ZZ=            -36.6983
   XY=             -2.0961   XZ=              0.0000   YZ=              0.0000

  Exact polarizability:  90.613  -0.898  56.234  -0.001   0.001  32.556
 Approx polarizability: 145.475   1.052  96.582  -0.004   0.003  49.668

                     1                      2                      3
                     A                      A                      A
 Frequencies --    94.0485               226.9027               231.8430
 Red. masses --     9.7991                 8.2634                 5.9432
 Frc consts  --     0.0511                 0.2507                 0.1882
 IR Inten    --     0.2715                 0.0760                 0.4285

                     4                      5                      6
                     A                      A                      A
 Frequencies --   494.1757               497.0602               629.3869
 Red. masses --     2.2916                 7.2920                 5.1024
 Frc consts  --     0.3297                 1.0615                 1.1909
 IR Inten    --    10.1013                 3.3708                 0.8519

                     7                      8                      9
                     A                      A                      A
 Frequencies --   670.4785               798.9893               799.3270
 Red. masses --    11.2050                 1.3035                 6.4758
 Frc consts  --     2.9678                 0.4903                 2.4378
 IR Inten    --     2.4812                59.7055                 7.0647

                    10                     11                     12
                     A                      A                      A
 Frequencies --   897.3088               906.1676               958.8767
 Red. masses --     5.4345                 1.5061                 1.4149
 Frc consts  --     2.5781                 0.7287                 0.7665
 IR Inten    --    28.6984                 0.8941                 0.3224

                    13                     14                     15
                     A                      A                      A
 Frequencies --  1041.4395              1065.6775              1074.0648
 Red. masses --     5.0802                 1.7767                 1.3579
 Frc consts  --     3.2464                 1.1888                 0.9230
 IR Inten    --     9.5537                14.9285                19.5404

                    16                     17                     18
                     A                      A                      A
 Frequencies --  1209.0935              1272.7793              1402.4716
 Red. masses --     1.8883                 3.1138                 2.9562
 Frc consts  --     1.6265                 2.9720                 3.4259
 IR Inten    --    24.7225                 2.9884               180.4311

                    19                     20                     21
                     A                      A                      A
 Frequencies --  1441.2842              1501.7429              1647.2944
 Red. masses --     3.5574                 4.1856                13.1790
 Frc consts  --     4.3540                 5.5616                21.0705
 IR Inten    --    65.4324                22.7575                35.1380

                    22                     23                     24
                     A                      A                      A
 Frequencies --  3243.3604              3255.6693              3267.4674
 Red. masses --     1.0974                 1.0976                 1.1091
 Frc consts  --     6.8016                 6.8544                 6.9766
 IR Inten    --    22.0339                40.7756                39.9228

 - Thermochemistry -
 -------------------
 Temperature   298.150 Kelvin.  Pressure   1.00000 Atm.
 Atom     1 has atomic number  7 and mass  14.00307

 Molecular mass:    95.02454 amu.
 Principal axes and moments of inertia in atomic units:
                           1         2         3
     Eigenvalues --   221.57517 784.463051006.03819
           X            1.00000  -0.00026   0.00001
           Y            0.00026   1.00000  -0.00001
           Z           -0.00001   0.00001   1.00000
 This molecule is an asymmetric top.
 Rotational symmetry number  1.
 Rotational temperatures (Kelvin)      0.39090     0.11041     0.08609
 Rotational constants (GHZ):           8.14505     2.30061     1.79391
 Zero-point vibrational energy     171226.9 (Joules/Mol)
                                   40.92422 (Kcal/Mol)
 Warning -- explicit consideration of   5 degrees of freedom as
           vibrations may cause significant error
 Vibrational temperatures:    135.31   326.46   333.57   711.01   715.16
          (Kelvin)            905.55   964.67  1149.57  1150.05  1291.03
                             1303.77  1379.61  1498.40  1533.27  1545.34
                             1739.61  1831.24  2017.84  2073.68  2160.67
                             2370.09  4666.47  4684.18  4701.15

 Zero-point correction=                           0.065217 (Hartree/Particle)
 Thermal correction to Energy=                    0.070997
 Thermal correction to Enthalpy=                  0.071941
 Thermal correction to Gibbs Free Energy=         0.034415
 Sum of electronic and zero-point Energies=           -338.506277
 Sum of electronic and thermal Energies=              -338.500496
 Sum of electronic and thermal Enthalpies=            -338.499552
 Sum of electronic and thermal Free Energies=         -338.537078

                     E (Thermal)             CV                S
                      KCal/Mol        Cal/Mol-Kelvin    Cal/Mol-Kelvin
 Total                   44.551             20.232             78.980
 Electronic               0.000              0.000              2.183
 Translational            0.889              2.981             39.566
 Rotational               0.889              2.981             26.661
 Vibrational             42.774             14.271             10.570
 Vibration     1          0.603              1.953              3.574
 Vibration     2          0.651              1.800              1.903
 Vibration     3          0.653              1.792              1.865
 Vibration     4          0.850              1.263              0.673
 Vibration     5          0.853              1.257              0.666

 Optimization completed.
    -- Stationary point found.
 Normal termination of Gaussian 09 at Thu Jan 20 23:15:47 2005.
