 Gaussian 09, Revision B.01,
 Gaussian 09:  EM64L-G09RevB.01 12-Aug-2010

 -------------------------------------------------
 #p Temperature=298.15 opt freq UB3LYP/aug-cc-pVDZ
 -------------------------------------------------

 --------------------------------------
 Furan-2-N2+-UB3LYP-aug-cc-pVDZ-Singlet
 --------------------------------------
 Symbolic Z-matrix:
 Charge =  1 Multiplicity = 1

 SCF Done:  E(UB3LYP) =  -338.619953472     A.U. after   16 cycles
 SCF Done:  E(UB3LYP) =  -338.639504351     A.U. after   12 cycles
 SCF Done:  E(UB3LYP) =  -338.641283868     A.U. after   15 cycles
 SCF Done:  E(UB3LYP) =  -338.640263978     A.U. after   16 cycles
 SCF Done:  E(UB3LYP) =  -338.641706441     A.U. after   15 cycles
 SCF Done:  E(UB3LYP) =  -338.641868399     A.U. after   11 cycles
 SCF Done:  E(UB3LYP) =  -338.641873700     A.U. after   15 cycles
 SCF Done:  E(UB3LYP) =  -338.641874549     A.U. after   10 cycles
 SCF Done:  E(UB3LYP) =  -338.641876099     A.U. after   15 cycles
 Optimization completed.
    -- Stationary point found.
 Normal termination of Gaussian 09 at Tue Mar  6 04:38:50 2018.

 ----------------------------------------------------------------------
 #P Geom=AllCheck Guess=TCheck SCRF=Check GenChk UB3LYP/Aug-CC-pVDZ Fre
 q
 ----------------------------------------------------------------------

 Furan-2-N2+-UB3LYP-aug-cc-pVDZ-Singlet
 --------------------------------------
 Redundant internal coordinates taken from checkpoint file:
 Furan-2-N2+-UB3LYP-aug-cc-pVDZ-Singlet.chk
 Charge =  1 Multiplicity = 1

                         Standard orientation:
 ---------------------------------------------------------------------
 Center     Atomic      Atomic             Coordinates (Angstroms)
 Number     Number       Type             X           Y           Z
 ---------------------------------------------------------------------
      1          7           0        1.647779    0.022385   -0.000028
      2          7           0        2.767978   -0.018381    0.000057
      3          6           0        0.306874    0.092760   -0.000104
      4          6           0       -0.550174    1.187487    0.000038
      5          1           0       -0.267236    2.236488    0.000045
      6          6           0       -1.840793    0.621060   -0.000024
      7          1           0       -2.787026    1.153285    0.000053
      8          6           0       -1.672922   -0.752475    0.000026
      9          1           0       -2.372847   -1.583303    0.000138
     10          8           0       -0.367636   -1.090937   -0.000007
 ---------------------------------------------------------------------

 SCF Done:  E(UB3LYP) =  -338.641876099     A.U. after    2 cycles

 The electronic state is 1-A.
 Alpha  occ. eigenvalues --  -19.45942 -14.74077 -14.70286 -10.53609 -10.48219
 Alpha  occ. eigenvalues --  -10.44668 -10.41373  -1.39539  -1.36283  -1.10644
 Alpha  occ. eigenvalues --   -1.04322  -0.92349  -0.84879  -0.78422  -0.75336
 Alpha  occ. eigenvalues --   -0.72835  -0.72398  -0.69933  -0.67999  -0.64440
 Alpha  occ. eigenvalues --   -0.63122  -0.61365  -0.51934  -0.47682
 Alpha virt. eigenvalues --   -0.31250  -0.30860  -0.19369  -0.15424  -0.14902
 Alpha virt. eigenvalues --   -0.12169  -0.11636  -0.11403  -0.09918  -0.09429
 Alpha virt. eigenvalues --   -0.08950  -0.06048  -0.05607  -0.04783  -0.04776

  Beta  occ. eigenvalues --  -19.45942 -14.74077 -14.70286 -10.53609 -10.48219
  Beta  occ. eigenvalues --  -10.44668 -10.41373  -1.39539  -1.36283  -1.10644
  Beta  occ. eigenvalues --   -1.04322  -0.92349  -0.84879  -0.78422  -0.75336
  Beta  occ. eigenvalues --   -0.72835  -0.72398  -0.69933  -0.67999  -0.64440
  Beta  occ. eigenvalues --   -0.63122  -0.61365  -0.51934  -0.47682
  Beta virt. eigenvalues --   -0.31250  -0.30860  -0.19369  -0.15424  -0.14902
  Beta virt. eigenvalues --   -0.12169  -0.11636  -0.11403  -0.09918  -0.09429
  Beta virt. eigenvalues --   -0.08950  -0.06048  -0.05607  -0.04783  -0.04776

 Mulliken atomic charges:
              1
     1  N    0.497696
     2  N   -0.430194
     3  C    0.193508
     4  C    1.140411
     5  H   -0.513284
     6  C    1.020864
     7  H   -0.459223
     8  C    0.355679
     9  H   -0.494717
    10  O   -0.310740
 Sum of Mulliken atomic charges =   1.00000

 Dipole moment (field-independent basis, Debye):
    X=             -0.8769    Y=              1.2454    Z=              0.0002  Tot=              1.5231
 Quadrupole moment (field-independent basis, Debye-Ang):
   XX=            -18.1870   YY=            -29.1532   ZZ=            -37.7683
   XY=              1.3079   XZ=             -0.0006   YZ=              0.0000

  Exact polarizability: 105.451   0.602  52.766   0.000   0.000  32.716
 Approx polarizability: 220.499   1.500  90.629   0.001   0.001  48.967

                     1                      2                      3
                     A                      A                      A
 Frequencies --   162.4441               184.6685               482.1788
 Red. masses --     6.6495                 7.7089                12.8614
 Frc consts  --     0.1034                 0.1549                 1.7618
 IR Inten    --     1.4234                 0.1873                 2.7229

                     4                      5                      6
                     A                      A                      A
 Frequencies --   540.2205               566.7259               589.9856
 Red. masses --     8.7237                 2.5842                 9.7825
 Frc consts  --     1.5000                 0.4890                 2.0062
 IR Inten    --     1.1186                11.3798                 3.9271

                     7                      8                      9
                     A                      A                      A
 Frequencies --   590.7498               796.4848               890.8961
 Red. masses --     5.5757                 1.1936                 6.3298
 Frc consts  --     1.1464                 0.4461                 2.9600
 IR Inten    --     1.9039                62.9515                12.9096

                    10                     11                     12
                     A                      A                      A
 Frequencies --   897.7918               932.7651               943.3670
 Red. masses --     1.3716                 1.4338                 4.0262
 Frc consts  --     0.6514                 0.7350                 2.1111
 IR Inten    --     0.0742                 0.5742                31.7026

                    13                     14                     15
                     A                      A                      A
 Frequencies --  1053.4253              1100.7498              1168.2637
 Red. masses --     1.2668                 2.4233                 2.2212
 Frc consts  --     0.8282                 1.7300                 1.7861
 IR Inten    --    44.7325                12.3131                26.5407

                    16                     17                     18
                     A                      A                      A
 Frequencies --  1258.0871              1301.5782              1427.6992
 Red. masses --     1.6696                 6.4021                 4.5715
 Frc consts  --     1.5570                 6.3901                 5.4901
 IR Inten    --     1.4538                30.4989               188.8536

                    19                     20                     21
                     A                      A                      A
 Frequencies --  1460.8479              1547.5223              2294.2689
 Red. masses --     3.2820                 5.1528                13.9754
 Frc consts  --     4.1266                 7.2705                43.3414
 IR Inten    --    77.9850                23.1687               361.3279

                    22                     23                     24
                     A                      A                      A
 Frequencies --  3259.1271              3267.4849              3280.7209
 Red. masses --     1.0951                 1.1003                 1.1093
 Frc consts  --     6.8531                 6.9216                 7.0346
 IR Inten    --     3.9768                42.9912                32.6139

 - Thermochemistry -
 -------------------
 Temperature   298.150 Kelvin.  Pressure   1.00000 Atm.
 Atom     1 has atomic number  7 and mass  14.00307

 Molecular mass:    95.02454 amu.
 Principal axes and moments of inertia in atomic units:
                           1         2         3
     Eigenvalues --   201.30170 856.150611057.45230
           X            1.00000  -0.00084   0.00000
           Y            0.00084   1.00000   0.00000
           Z            0.00000   0.00000   1.00000
 This molecule is an asymmetric top.
 Rotational symmetry number  1.
 Rotational temperatures (Kelvin)      0.43027     0.10117     0.08191
 Rotational constants (GHZ):           8.96535     2.10797     1.70669
 Zero-point vibrational energy     179428.2 (Joules/Mol)
                                   42.88437 (Kcal/Mol)
 Warning -- explicit consideration of   7 degrees of freedom as
           vibrations may cause significant error
 Vibrational temperatures:    233.72   265.70   693.75   777.26   815.39
          (Kelvin)            848.86   849.96  1145.96  1281.80  1291.72
                             1342.04  1357.29  1515.64  1583.73  1680.87
                             1810.10  1872.68  2054.14  2101.83  2226.54
                             3300.94  4689.15  4701.18  4720.22

 Zero-point correction=                           0.068341 (Hartree/Particle)
 Thermal correction to Energy=                    0.073722
 Thermal correction to Enthalpy=                  0.074666
 Thermal correction to Gibbs Free Energy=         0.039125
 Sum of electronic and zero-point Energies=           -338.573536
 Sum of electronic and thermal Energies=              -338.568154
 Sum of electronic and thermal Enthalpies=            -338.567210
 Sum of electronic and thermal Free Energies=         -338.602751

                     E (Thermal)             CV                S
                      KCal/Mol        Cal/Mol-Kelvin    Cal/Mol-Kelvin
 Total                   46.261             19.337             74.802
 Electronic               0.000              0.000              0.000
 Translational            0.889              2.981             39.566
 Rotational               0.889              2.981             26.702
 Vibrational             44.484             13.375              8.534
 Vibration     1          0.623              1.888              2.521
 Vibration     2          0.631              1.861              2.281
 Vibration     3          0.838              1.290              0.704
 Vibration     4          0.895              1.161              0.565
 Vibration     5          0.923              1.103              0.511
 Vibration     6          0.947              1.053              0.467
 Vibration     7          0.948              1.051              0.466

 Optimization completed.
    -- Stationary point found.
 Normal termination of Gaussian 09 at Tue Mar  6 04:42:21 2018.
