 Gaussian 09, Revision B.01,
 Gaussian 09:  EM64L-G09RevB.01 12-Aug-2010

 -------------------------------------------------
 #p Temperature=298.15 opt freq UB3LYP/aug-cc-pVDZ
 -------------------------------------------------

 -------------------------------------
 Imidazole-4-UB3LYP-aug-cc-pVDZ-Duplet
 -------------------------------------
 Symbolic Z-matrix:
 Charge =  0 Multiplicity = 2

 SCF Done:  E(UB3LYP) =  -225.538376397     A.U. after   17 cycles
 SCF Done:  E(UB3LYP) =  -225.554507359     A.U. after   17 cycles
 SCF Done:  E(UB3LYP) =  -225.555345867     A.U. after   17 cycles
 SCF Done:  E(UB3LYP) =  -225.555392820     A.U. after   13 cycles
 SCF Done:  E(UB3LYP) =  -225.555356576     A.U. after   17 cycles
 SCF Done:  E(UB3LYP) =  -225.555410969     A.U. after   17 cycles
 Optimization completed.
    -- Stationary point found.
 Normal termination of Gaussian 09 at Tue Mar  6 09:22:53 2018.

 ----------------------------------------------------------------------
 #P Geom=AllCheck Guess=TCheck SCRF=Check GenChk UB3LYP/Aug-CC-pVDZ Fre
 q
 ----------------------------------------------------------------------

 Imidazole-4-UB3LYP-aug-cc-pVDZ-Duplet
 -------------------------------------
 Redundant internal coordinates taken from checkpoint file:
 Imidazole-4-UB3LYP-aug-cc-pVDZ-Duplet.chk
 Charge =  0 Multiplicity = 2

                         Standard orientation:
 ---------------------------------------------------------------------
 Center     Atomic      Atomic             Coordinates (Angstroms)
 Number     Number       Type             X           Y           Z
 ---------------------------------------------------------------------
      1          6           0       -0.088020   -1.209171    0.000461
      2          6           0        0.829098    0.699238   -0.000196
      3          1           0        1.556021    1.504018   -0.000289
      4          7           0       -0.519730    0.912660   -0.000227
      5          1           0       -0.978127    1.813695    0.002776
      6          6           0       -1.144804   -0.330034   -0.000192
      7          1           0       -2.219346   -0.453244   -0.001119
      8          7           0        1.100274   -0.601897   -0.000032
 ---------------------------------------------------------------------

 SCF Done:  E(UB3LYP) =  -225.555410969     A.U. after    1 cycles

 The electronic state is 2-A.
 Alpha  occ. eigenvalues --  -14.40803 -14.33769 -10.26090 -10.23186 -10.23028
 Alpha  occ. eigenvalues --   -1.03758  -0.89598  -0.75831  -0.63794  -0.59214
 Alpha  occ. eigenvalues --   -0.56548  -0.46216  -0.45237  -0.44962  -0.32717
 Alpha  occ. eigenvalues --   -0.30760  -0.25879  -0.24731
 Alpha virt. eigenvalues --   -0.02285  -0.00540   0.00649   0.01593   0.03841
 Alpha virt. eigenvalues --    0.04636   0.04800   0.05290   0.06660   0.08111
 Alpha virt. eigenvalues --    0.08609   0.09794   0.10022   0.10054   0.10481

  Beta  occ. eigenvalues --  -14.40757 -14.33520 -10.25935 -10.23067 -10.21477
  Beta  occ. eigenvalues --   -1.03291  -0.89081  -0.74848  -0.63143  -0.58521
  Beta  occ. eigenvalues --   -0.55208  -0.45382  -0.44855  -0.44719  -0.30323
  Beta  occ. eigenvalues --   -0.30149  -0.24062
  Beta virt. eigenvalues --   -0.10334  -0.02241  -0.00444   0.00731   0.01724
  Beta virt. eigenvalues --    0.04621   0.04979   0.05433   0.05450   0.06736
  Beta virt. eigenvalues --    0.08178   0.08676   0.09911   0.10130   0.10434

 Mulliken atomic charges:
              1
     1  C   -0.261459
     2  C    0.551448
     3  H   -0.294804
     4  N    0.000065
     5  H   -0.185903
     6  C    0.850158
     7  H   -0.368039
     8  N   -0.291466
 Sum of Mulliken atomic charges =   0.00000

 Dipole moment (field-independent basis, Debye):
    X=             -2.3223    Y=              3.5683    Z=              0.0028  Tot=              4.2574
 Quadrupole moment (field-independent basis, Debye-Ang):
   XX=            -28.0004   YY=            -26.2577   ZZ=            -31.3958
   XY=              1.2779   XZ=             -0.0022   YZ=              0.0106

  Exact polarizability:  58.086   2.990  53.862  -0.001  -0.005  33.597
 Approx polarizability:  95.582   3.009  86.652   0.002  -0.015  47.504

                     1                      2                      3
                     A                      A                      A
 Frequencies --   565.5085               597.6060               670.5095
 Red. masses --     1.6263                 4.1407                 2.2567
 Frc consts  --     0.3064                 0.8713                 0.5978
 IR Inten    --    95.5018                 0.7303                 2.4098

                     4                      5                      6
                     A                      A                      A
 Frequencies --   710.6654               798.0938               836.1329
 Red. masses --     1.2662                 1.3517                 8.0510
 Frc consts  --     0.3768                 0.5073                 3.3163
 IR Inten    --    21.7919                31.9967                17.3444

                     7                      8                      9
                     A                      A                      A
 Frequencies --   941.6236              1049.6674              1108.7358
 Red. masses --     5.4941                 1.6668                 1.5481
 Frc consts  --     2.8701                 1.0821                 1.1213
 IR Inten    --     1.0330                36.8645                17.3249

                    10                     11                     12
                     A                      A                      A
 Frequencies --  1187.7676              1243.9191              1347.2334
 Red. masses --     2.1525                 2.1037                 8.0257
 Frc consts  --     1.7892                 1.9179                 8.5826
 IR Inten    --     1.5136                 9.0561                28.7826

                    13                     14                     15
                     A                      A                      A
 Frequencies --  1405.1544              1461.5323              1504.9225
 Red. masses --     3.9801                 3.1534                 2.7809
 Frc consts  --     4.6302                 3.9687                 3.7108
 IR Inten    --     9.3285                34.2635                 3.1453

                    16                     17                     18
                     A                      A                      A
 Frequencies --  3260.6885              3298.2147              3630.6149
 Red. masses --     1.0973                 1.0993                 1.0817
 Frc consts  --     6.8739                 7.0454                 8.4010
 IR Inten    --     1.1199                 0.5593                50.5103

 - Thermochemistry -
 -------------------
 Temperature   298.150 Kelvin.  Pressure   1.00000 Atm.
 Atom     1 has atomic number  6 and mass  12.00000

 Molecular mass:    67.02962 amu.
 Principal axes and moments of inertia in atomic units:
                           1         2         3
     Eigenvalues --   167.07610 190.99481 358.07082
           X            0.97338   0.22919  -0.00001
           Y           -0.22919   0.97338   0.00011
           Z            0.00003  -0.00010   1.00000
 This molecule is an asymmetric top.
 Rotational symmetry number  1.
 Rotational temperatures (Kelvin)      0.51841     0.45349     0.24189
 Rotational constants (GHZ):          10.80191     9.44916     5.04018
 Zero-point vibrational energy     153233.2 (Joules/Mol)
                                   36.62361 (Kcal/Mol)
 Warning -- explicit consideration of   2 degrees of freedom as
           vibrations may cause significant error
 Vibrational temperatures:    813.64   859.82   964.71  1022.49  1148.28
          (Kelvin)           1203.01  1354.78  1510.24  1595.22  1708.93
                             1789.72  1938.37  2021.70  2102.82  2165.25
                             4691.40  4745.39  5223.64

 Zero-point correction=                           0.058363 (Hartree/Particle)
 Thermal correction to Energy=                    0.062078
 Thermal correction to Enthalpy=                  0.063022
 Thermal correction to Gibbs Free Energy=         0.031547
 Sum of electronic and zero-point Energies=           -225.497048
 Sum of electronic and thermal Energies=              -225.493333
 Sum of electronic and thermal Enthalpies=            -225.492389
 Sum of electronic and thermal Free Energies=         -225.523864

                     E (Thermal)             CV                S
                      KCal/Mol        Cal/Mol-Kelvin    Cal/Mol-Kelvin
 Total                   38.954             12.872             66.244
 Electronic               0.000              0.000              1.377
 Translational            0.889              2.981             38.526
 Rotational               0.889              2.981             23.950
 Vibrational             37.177              6.910              2.390
 Vibration     1          0.921              1.106              0.513
 Vibration     2          0.956              1.037              0.454

 Normal termination of Gaussian 09 at Tue Mar  6 09:24:05 2018.
