 Gaussian 09, Revision B.01,
 Gaussian 09:  EM64L-G09RevB.01 12-Aug-2010

 -------------------------------------------------
 #p Temperature=298.15 opt freq UB3LYP/aug-cc-pVDZ
 -------------------------------------------------

 -------------------------------------
 Imidazole-2-UB3LYP-aug-cc-pVDZ-Duplet
 -------------------------------------
 Symbolic Z-matrix:
 Charge =  0 Multiplicity = 2

 SCF Done:  E(UB3LYP) =  -225.534959952     A.U. after   20 cycles
 SCF Done:  E(UB3LYP) =  -225.553961100     A.U. after   18 cycles
 SCF Done:  E(UB3LYP) =  -225.555278064     A.U. after   17 cycles
 SCF Done:  E(UB3LYP) =  -225.555383201     A.U. after   17 cycles
 SCF Done:  E(UB3LYP) =  -225.555341257     A.U. after   17 cycles
 SCF Done:  E(UB3LYP) =  -225.555399207     A.U. after   13 cycles
 Optimization completed.
    -- Stationary point found.
 Normal termination of Gaussian 09 at Tue Mar  6 08:51:12 2018.

 ----------------------------------------------------------------------
 #P Geom=AllCheck Guess=TCheck SCRF=Check GenChk UB3LYP/Aug-CC-pVDZ Fre
 q
 ----------------------------------------------------------------------

 Imidazole-2-UB3LYP-aug-cc-pVDZ-Duplet
 -------------------------------------
 Redundant internal coordinates taken from checkpoint file:
 Imidazole-2-UB3LYP-aug-cc-pVDZ-Duplet.chk
 Charge =  0 Multiplicity = 2

                         Standard orientation:
 ---------------------------------------------------------------------
 Center     Atomic      Atomic             Coordinates (Angstroms)
 Number     Number       Type             X           Y           Z
 ---------------------------------------------------------------------
      1          6           0       -0.098337   -1.166062    0.000288
      2          6           0       -0.484083    0.998411    0.000158
      3          1           0       -1.046512    1.925227   -0.000532
      4          7           0       -1.105589   -0.251560   -0.000433
      5          1           0       -2.095839   -0.442743    0.001211
      6          6           0        0.863730    0.733048    0.000239
      7          1           0        1.692748    1.432244   -0.000158
      8          7           0        1.071552   -0.649456   -0.000228
 ---------------------------------------------------------------------

 SCF Done:  E(UB3LYP) =  -225.555399207     A.U. after    1 cycles

 The electronic state is 2-A.
 Alpha  occ. eigenvalues --  -14.40832 -14.33780 -10.26854 -10.23236 -10.22188
 Alpha  occ. eigenvalues --   -1.03745  -0.89523  -0.75705  -0.62968  -0.61126
 Alpha  occ. eigenvalues --   -0.54787  -0.45875  -0.45009  -0.44085  -0.33403
 Alpha  occ. eigenvalues --   -0.30356  -0.27425  -0.25275
 Alpha virt. eigenvalues --   -0.01934   0.00354   0.00649   0.01912   0.03147
 Alpha virt. eigenvalues --    0.04908   0.05043   0.05434   0.06606   0.08610
 Alpha virt. eigenvalues --    0.08722   0.09258   0.09653   0.09925   0.10571

  Beta  occ. eigenvalues --  -14.40637 -14.33501 -10.25336 -10.23218 -10.22002
  Beta  occ. eigenvalues --   -1.02974  -0.89002  -0.74786  -0.62456  -0.60158
  Beta  occ. eigenvalues --   -0.53067  -0.45563  -0.44506  -0.43545  -0.30271
  Beta  occ. eigenvalues --   -0.30179  -0.24537
  Beta virt. eigenvalues --   -0.12927  -0.01854   0.00737   0.01129   0.02001
  Beta virt. eigenvalues --    0.03718   0.05513   0.05604   0.05612   0.06654
  Beta virt. eigenvalues --    0.08841   0.08892   0.09284   0.09751   0.10071

 Mulliken atomic charges:
              1
     1  C   -0.077599
     2  C    0.874451
     3  H   -0.459103
     4  N   -0.036790
     5  H   -0.164271
     6  C    0.536502
     7  H   -0.421484
     8  N   -0.251704
 Sum of Mulliken atomic charges =   0.00000

 Dipole moment (field-independent basis, Debye):
    X=             -3.2304    Y=              1.6130    Z=              0.0012  Tot=              3.6107
 Quadrupole moment (field-independent basis, Debye-Ang):
   XX=            -25.4766   YY=            -28.4337   ZZ=            -31.3742
   XY=              2.8961   XZ=             -0.0045   YZ=             -0.0022

  Exact polarizability:  55.901   0.837  54.325  -0.003  -0.008  33.545
 Approx polarizability:  95.280   1.449  83.759  -0.004  -0.011  47.449

                     1                      2                      3
                     A                      A                      A
 Frequencies --   456.2515               588.9971               624.3673
 Red. masses --     2.7187                 1.8528                 2.6835
 Frc consts  --     0.3334                 0.3787                 0.6163
 IR Inten    --    44.5636                22.7070                 8.4236

                     4                      5                      6
                     A                      A                      A
 Frequencies --   737.0433               812.8205               842.5579
 Red. masses --     1.2841                 8.4419                 1.3024
 Frc consts  --     0.4110                 3.2861                 0.5447
 IR Inten    --    71.4894                34.3719                 9.6609

                     7                      8                      9
                     A                      A                      A
 Frequencies --   930.0647              1055.4014              1085.2713
 Red. masses --     6.4517                 1.6458                 1.3607
 Frc consts  --     3.2881                 1.0801                 0.9443
 IR Inten    --     0.6595                35.8765                13.3685

                    10                     11                     12
                     A                      A                      A
 Frequencies --  1116.4715              1186.9788              1329.2330
 Red. masses --     5.5916                 2.1410                 2.1119
 Frc consts  --     4.1066                 1.7773                 2.1985
 IR Inten    --    17.3704                 9.4553                 1.5677

                    13                     14                     15
                     A                      A                      A
 Frequencies --  1397.6073              1516.3010              1584.2761
 Red. masses --     2.4040                 4.2267                 6.4173
 Frc consts  --     2.7666                 5.7256                 9.4899
 IR Inten    --    24.5944                12.6398                55.8491

                    16                     17                     18
                     A                      A                      A
 Frequencies --  3257.5123              3279.7556              3665.9329
 Red. masses --     1.0902                 1.1072                 1.0816
 Frc consts  --     6.8161                 7.0171                 8.5641
 IR Inten    --     1.7160                 1.8619                75.9072

 - Thermochemistry -
 -------------------
 Temperature   298.150 Kelvin.  Pressure   1.00000 Atm.
 Atom     1 has atomic number  6 and mass  12.00000

 Molecular mass:    67.02962 amu.
 Principal axes and moments of inertia in atomic units:
                           1         2         3
     Eigenvalues --   168.34338 191.82580 360.16914
           X            0.98053   0.19639  -0.00004
           Y           -0.19639   0.98053  -0.00004
           Z            0.00003   0.00005   1.00000
 This molecule is an asymmetric top.
 Rotational symmetry number  1.
 Rotational temperatures (Kelvin)      0.51451     0.45152     0.24048
 Rotational constants (GHZ):          10.72059     9.40823     5.01082
 Zero-point vibrational energy     152325.6 (Joules/Mol)
                                   36.40668 (Kcal/Mol)
 Warning -- explicit consideration of   2 degrees of freedom as
           vibrations may cause significant error
 Vibrational temperatures:    656.44   847.43   898.32  1060.44  1169.47
          (Kelvin)           1212.25  1338.15  1518.49  1561.46  1606.35
                             1707.80  1912.47  2010.84  2181.62  2279.42
                             4686.83  4718.83  5274.45

 Zero-point correction=                           0.058018 (Hartree/Particle)
 Thermal correction to Energy=                    0.061833
 Thermal correction to Enthalpy=                  0.062777
 Thermal correction to Gibbs Free Energy=         0.031137
 Sum of electronic and zero-point Energies=           -225.497381
 Sum of electronic and thermal Energies=              -225.493566
 Sum of electronic and thermal Enthalpies=            -225.492622
 Sum of electronic and thermal Free Energies=         -225.524262

                     E (Thermal)             CV                S
                      KCal/Mol        Cal/Mol-Kelvin    Cal/Mol-Kelvin
 Total                   38.801             13.238             66.593
 Electronic               0.000              0.000              1.377
 Translational            0.889              2.981             38.526
 Rotational               0.889              2.981             23.968
 Vibrational             37.023              7.277              2.721
 Vibration     1          0.814              1.347              0.777
 Vibration     2          0.946              1.055              0.469

 Optimization completed.
    -- Stationary point found.
 Normal termination of Gaussian 09 at Tue Mar  6 08:52:25 2018.
