 Gaussian 09, Revision B.01,
 Gaussian 09:  EM64L-G09RevB.01 12-Aug-2010

 -------------------------------------------------
 #p Temperature=298.15 opt freq UB3LYP/aug-cc-pVDZ
 -------------------------------------------------

 ------------------------------------------
 Imidazole-5-N2+-UB3LYP-aug-cc-pVDZ-Triplet
 ------------------------------------------
 Symbolic Z-matrix:
 Charge =  1 Multiplicity = 3

 SCF Done:  E(UB3LYP) =  -334.715026305     A.U. after   23 cycles
 SCF Done:  E(UB3LYP) =  -334.741001971     A.U. after   20 cycles
 SCF Done:  E(UB3LYP) =  -334.746293094     A.U. after   19 cycles
 SCF Done:  E(UB3LYP) =  -334.746801877     A.U. after   23 cycles
 SCF Done:  E(UB3LYP) =  -334.746947366     A.U. after   22 cycles
 SCF Done:  E(UB3LYP) =  -334.747152619     A.U. after   23 cycles
 SCF Done:  E(UB3LYP) =  -334.747169338     A.U. after   17 cycles
 SCF Done:  E(UB3LYP) =  -334.747172994     A.U. after   16 cycles
 SCF Done:  E(UB3LYP) =  -334.747178721     A.U. after   16 cycles
 SCF Done:  E(UB3LYP) =  -334.747176680     A.U. after   17 cycles
 SCF Done:  E(UB3LYP) =  -334.766771613     A.U. after   16 cycles
 SCF Done:  E(UB3LYP) =  -334.767178212     A.U. after   19 cycles
 SCF Done:  E(UB3LYP) =  -334.767910128     A.U. after   20 cycles
 SCF Done:  E(UB3LYP) =  -334.767990445     A.U. after   16 cycles
 SCF Done:  E(UB3LYP) =  -334.768069523     A.U. after   13 cycles
 SCF Done:  E(UB3LYP) =  -334.768149956     A.U. after   14 cycles
 SCF Done:  E(UB3LYP) =  -334.768191492     A.U. after   14 cycles
 SCF Done:  E(UB3LYP) =  -334.768214437     A.U. after   20 cycles
 SCF Done:  E(UB3LYP) =  -334.768220164     A.U. after   13 cycles
 Optimization completed.
    -- Stationary point found.
 Normal termination of Gaussian 09 at Fri Jan 21 01:35:24 2005.

 ----------------------------------------------------------------------
 #P Geom=AllCheck Guess=TCheck SCRF=Check GenChk UB3LYP/Aug-CC-pVDZ Fre
 q
 ----------------------------------------------------------------------

 Imidazole-5-N2+-UB3LYP-aug-cc-pVDZ-Triplet
 ------------------------------------------
 Redundant internal coordinates taken from checkpoint file:
 Imidazole-5-N2+-UB3LYP-aug-cc-pVDZ-Triplet.chk
 Charge =  1 Multiplicity = 3

                         Standard orientation:
 ---------------------------------------------------------------------
 Center     Atomic      Atomic             Coordinates (Angstroms)
 Number     Number       Type             X           Y           Z
 ---------------------------------------------------------------------
      1          7           0       -1.706256   -0.499724   -0.001004
      2          7           0       -2.570030    0.338721    0.001477
      3          6           0       -0.358544   -0.140940   -0.000749
      4          6           0        0.363393    1.138428   -0.000646
      5          1           0       -0.081459    2.132366   -0.001550
      6          6           0        1.810784   -0.440616    0.000686
      7          1           0        2.766356   -0.961182    0.001366
      8          7           0        0.609342   -1.091266   -0.000158
      9          1           0        0.451212   -2.098362    0.000013
     10          7           0        1.662670    0.907404    0.000317
 ---------------------------------------------------------------------

 SCF Done:  E(UB3LYP) =  -334.768220164     A.U. after    1 cycles

 The electronic state is 3-A.
 Alpha  occ. eigenvalues --  -14.65962 -14.64459 -14.63544 -14.58189 -10.55683
 Alpha  occ. eigenvalues --  -10.53755 -10.49708  -1.31671  -1.28619  -1.15613
 Alpha  occ. eigenvalues --   -1.04381  -0.93611  -0.88705  -0.85692  -0.77265
 Alpha  occ. eigenvalues --   -0.72755  -0.72505  -0.69065  -0.67402  -0.65125
 Alpha  occ. eigenvalues --   -0.62911  -0.56046  -0.53022  -0.51052  -0.44020
 Alpha virt. eigenvalues --   -0.31244  -0.23633  -0.18895  -0.17476  -0.14088
 Alpha virt. eigenvalues --   -0.12880  -0.11432  -0.10966  -0.09889  -0.09198
 Alpha virt. eigenvalues --   -0.06505  -0.05575  -0.05109  -0.04504  -0.04394

  Beta  occ. eigenvalues --  -14.66169 -14.64306 -14.61418 -14.58286 -10.54649
  Beta  occ. eigenvalues --  -10.53116 -10.49340  -1.30380  -1.27009  -1.15466
  Beta  occ. eigenvalues --   -1.01753  -0.91597  -0.88262  -0.84782  -0.76294
  Beta  occ. eigenvalues --   -0.71586  -0.70373  -0.67029  -0.64788  -0.63048
  Beta  occ. eigenvalues --   -0.59163  -0.55789  -0.52341
  Beta virt. eigenvalues --   -0.40850  -0.28279  -0.27500  -0.21347  -0.17378
  Beta virt. eigenvalues --   -0.15606  -0.13756  -0.12681  -0.11201  -0.10688
  Beta virt. eigenvalues --   -0.09670  -0.08956  -0.06064  -0.05487  -0.04696

 Mulliken atomic charges:
              1
     1  N    0.116502
     2  N   -0.337035
     3  C    0.642534
     4  C    0.715121
     5  H   -0.329616
     6  C    0.731482
     7  H   -0.213138
     8  N    0.016822
     9  H   -0.102765
    10  N   -0.239906
 Sum of Mulliken atomic charges =   1.00000

 Dipole moment (field-independent basis, Debye):
    X=              2.4512    Y=             -2.6558    Z=             -0.0012  Tot=              3.6141
 Quadrupole moment (field-independent basis, Debye-Ang):
   XX=            -30.2661   YY=            -26.8490   ZZ=            -36.7682
   XY=             -6.8402   XZ=              0.0062   YZ=             -0.0094

  Exact polarizability:  84.354  -4.148  54.799   0.001   0.002  31.992
 Approx polarizability: 138.065 -13.148  91.127  -0.001   0.014  49.092

                     1                      2                      3
                     A                      A                      A
 Frequencies --    83.8881               218.3539               238.2191
 Red. masses --     8.4376                 7.2643                 7.7479
 Frc consts  --     0.0350                 0.2041                 0.2591
 IR Inten    --     0.0035                 4.7337                 5.4632

                     4                      5                      6
                     A                      A                      A
 Frequencies --   504.2461               510.3735               602.3698
 Red. masses --     7.4132                 2.8905                 2.6886
 Frc consts  --     1.1106                 0.4436                 0.5748
 IR Inten    --    13.6605                31.0500                11.4646

                     7                      8                      9
                     A                      A                      A
 Frequencies --   619.8760               718.2036               886.0288
 Red. masses --    11.0494                 1.1372                 6.5928
 Frc consts  --     2.5015                 0.3456                 3.0494
 IR Inten    --     3.1746                86.2521                 8.1413

                    10                     11                     12
                     A                      A                      A
 Frequencies --   888.7222               926.3262               942.7470
 Red. masses --     1.6144                 1.6406                 4.7258
 Frc consts  --     0.7513                 0.8294                 2.4747
 IR Inten    --    15.1509                 1.4891                 5.3971

                    13                     14                     15
                     A                      A                      A
 Frequencies --  1039.2180              1103.4192              1236.7035
 Red. masses --     2.3827                 2.2263                 2.1023
 Frc consts  --     1.5161                 1.5971                 1.8945
 IR Inten    --    22.1597                34.8871                 9.5813

                    16                     17                     18
                     A                      A                      A
 Frequencies --  1247.9157              1305.9495              1397.7524
 Red. masses --     2.1960                 2.5068                 2.8674
 Frc consts  --     2.0149                 2.5190                 3.3006
 IR Inten    --     0.8334                 9.4739                 6.3995

                    19                     20                     21
                     A                      A                      A
 Frequencies --  1448.7076              1520.3011              1688.5260
 Red. masses --     3.6061                 3.1872                12.5478
 Frc consts  --     4.4592                 4.3403                21.0781
 IR Inten    --   205.5150                21.7961                30.7487

                    22                     23                     24
                     A                      A                      A
 Frequencies --  3242.4232              3251.4045              3541.5662
 Red. masses --     1.1002                 1.1025                 1.0845
 Frc consts  --     6.8152                 6.8672                 8.0145
 IR Inten    --    31.6902                30.7052               224.7000

 - Thermochemistry -
 -------------------
 Temperature   298.150 Kelvin.  Pressure   1.00000 Atm.
 Atom     1 has atomic number  7 and mass  14.00307

 Molecular mass:    95.03577 amu.
 Principal axes and moments of inertia in atomic units:
                           1         2         3
     Eigenvalues --   218.85529 812.601861031.45666
           X            0.99974  -0.02276   0.00002
           Y            0.02276   0.99974  -0.00008
           Z           -0.00002   0.00008   1.00000
 This molecule is an asymmetric top.
 Rotational symmetry number  1.
 Rotational temperatures (Kelvin)      0.39576     0.10659     0.08397
 Rotational constants (GHZ):           8.24628     2.22094     1.74970
 Zero-point vibrational energy     174434.9 (Joules/Mol)
                                   41.69095 (Kcal/Mol)
 Warning -- explicit consideration of   7 degrees of freedom as
           vibrations may cause significant error
 Vibrational temperatures:    120.70   314.16   342.74   725.50   734.31
          (Kelvin)            866.67   891.86  1033.33  1274.80  1278.67
                             1332.78  1356.40  1495.20  1587.57  1779.34
                             1795.47  1878.97  2011.05  2084.36  2187.37
                             2429.41  4665.12  4678.04  5095.52

 Zero-point correction=                           0.066439 (Hartree/Particle)
 Thermal correction to Energy=                    0.072248
 Thermal correction to Enthalpy=                  0.073192
 Thermal correction to Gibbs Free Energy=         0.035516
 Sum of electronic and zero-point Energies=           -334.701781
 Sum of electronic and thermal Energies=              -334.695972
 Sum of electronic and thermal Enthalpies=            -334.695028
 Sum of electronic and thermal Free Energies=         -334.732704

                     E (Thermal)             CV                S
                      KCal/Mol        Cal/Mol-Kelvin    Cal/Mol-Kelvin
 Total                   45.336             20.161             79.296
 Electronic               0.000              0.000              2.183
 Translational            0.889              2.981             39.566
 Rotational               0.889              2.981             26.709
 Vibrational             43.559             14.199             10.838
 Vibration     1          0.601              1.960              3.798
 Vibration     2          0.646              1.813              1.973
 Vibration     3          0.656              1.782              1.816
 Vibration     4          0.860              1.241              0.648
 Vibration     5          0.865              1.227              0.633
 Vibration     6          0.961              1.027              0.446
 Vibration     7          0.980              0.990              0.417

 Normal termination of Gaussian 09 at Fri Jan 21 01:38:57 2005.
