 Gaussian 09, Revision B.01,
 Gaussian 09:  EM64L-G09RevB.01 12-Aug-2010

 -------------------------------------------------
 #p Temperature=298.15 opt freq UB3LYP/aug-cc-pVDZ
 -------------------------------------------------

 ---------------------------------------
 Imidazole-5+-UB3LYP-aug-cc-pVDZ-Singlet
 ---------------------------------------
 Symbolic Z-matrix:
 Charge =  1 Multiplicity = 1

 SCF Done:  E(UB3LYP) =  -225.157100799     A.U. after   21 cycles
 SCF Done:  E(UB3LYP) =  -225.190095748     A.U. after   18 cycles
 SCF Done:  E(UB3LYP) =  -225.201221934     A.U. after   13 cycles
 SCF Done:  E(UB3LYP) =  -225.202474517     A.U. after   13 cycles
 SCF Done:  E(UB3LYP) =  -225.202756855     A.U. after   12 cycles
 SCF Done:  E(UB3LYP) =  -225.202601585     A.U. after   13 cycles
 SCF Done:  E(UB3LYP) =  -225.202838444     A.U. after   12 cycles
 SCF Done:  E(UB3LYP) =  -225.202887251     A.U. after   12 cycles
 SCF Done:  E(UB3LYP) =  -225.202891301     A.U. after   10 cycles
 Optimization completed.
    -- Stationary point found.
 Normal termination of Gaussian 09 at Tue Mar  6 05:41:20 2018.

 ----------------------------------------------------------------------
 #P Geom=AllCheck Guess=TCheck SCRF=Check GenChk UB3LYP/Aug-CC-pVDZ Fre
 q
 ----------------------------------------------------------------------

 Imidazole-5+-UB3LYP-aug-cc-pVDZ-Singlet
 ---------------------------------------
 Redundant internal coordinates taken from checkpoint file:
 Imidazole-5+-UB3LYP-aug-cc-pVDZ-Singlet.chk
 Charge =  1 Multiplicity = 1

                         Standard orientation:
 ---------------------------------------------------------------------
 Center     Atomic      Atomic             Coordinates (Angstroms)
 Number     Number       Type             X           Y           Z
 ---------------------------------------------------------------------
      1          6           0       -0.268982   -0.978217    0.010420
      2          6           0       -1.331494   -0.186878   -0.008272
      3          1           0       -2.412702   -0.230931   -0.004858
      4          6           0        0.821968    0.744086   -0.001969
      5          1           0        1.562862    1.536548    0.002745
      6          7           0        1.027272   -0.588868   -0.004928
      7          1           0        1.861682   -1.170660   -0.000933
      8          7           0       -0.504529    0.930453    0.005210
 ---------------------------------------------------------------------

 SCF Done:  E(UB3LYP) =  -225.202891301     A.U. after    1 cycles

 The electronic state is 1-A.
 Alpha  occ. eigenvalues --  -14.66869 -14.63516 -10.55275 -10.51850 -10.50214
 Alpha  occ. eigenvalues --   -1.32149  -1.15848  -1.01884  -0.88661  -0.86303
 Alpha  occ. eigenvalues --   -0.79700  -0.74686  -0.71374  -0.69942  -0.56123
 Alpha  occ. eigenvalues --   -0.55333  -0.50435
 Alpha virt. eigenvalues --   -0.38965  -0.23617  -0.21101  -0.17666  -0.13047
 Alpha virt. eigenvalues --   -0.12427  -0.11715  -0.10815  -0.10609  -0.09300
 Alpha virt. eigenvalues --   -0.05967  -0.05074  -0.05010  -0.04443  -0.04170

  Beta  occ. eigenvalues --  -14.66869 -14.63516 -10.55275 -10.51850 -10.50214
  Beta  occ. eigenvalues --   -1.32149  -1.15848  -1.01884  -0.88661  -0.86303
  Beta  occ. eigenvalues --   -0.79700  -0.74686  -0.71374  -0.69942  -0.56123
  Beta  occ. eigenvalues --   -0.55333  -0.50435
  Beta virt. eigenvalues --   -0.38965  -0.23617  -0.21101  -0.17666  -0.13047
  Beta virt. eigenvalues --   -0.12427  -0.11715  -0.10815  -0.10609  -0.09300
  Beta virt. eigenvalues --   -0.05967  -0.05074  -0.05010  -0.04443  -0.04170

 Mulliken atomic charges:
              1
     1  C    0.272050
     2  C    0.789777
     3  H   -0.239947
     4  C    0.695912
     5  H   -0.170258
     6  N   -0.028096
     7  H   -0.078480
     8  N   -0.240957
 Sum of Mulliken atomic charges =   1.00000

 Dipole moment (field-independent basis, Debye):
    X=              1.6550    Y=             -1.7811    Z=             -0.0262  Tot=              2.4315
 Quadrupole moment (field-independent basis, Debye-Ang):
   XX=            -11.4862   YY=            -20.0993   ZZ=            -28.1702
   XY=              0.2268   XZ=              0.0446   YZ=              0.0113

  Exact polarizability:  48.740   1.102  48.107  -0.022  -0.155  25.743
 Approx polarizability:  84.253 -10.762 133.533   0.010  -0.552  36.312

                     1                      2                      3
                     A                      A                      A
 Frequencies --   109.6583               590.5269               676.1483
 Red. masses --    10.6622                 1.4438                 2.1954
 Frc consts  --     0.0755                 0.2966                 0.5914
 IR Inten    --    11.3848               126.3186                 1.4622

                     4                      5                      6
                     A                      A                      A
 Frequencies --   685.6786               748.8621               766.4211
 Red. masses --     7.8084                 1.2014                 5.0980
 Frc consts  --     2.1630                 0.3969                 1.7643
 IR Inten    --    13.9019                34.3739               117.6835

                     7                      8                      9
                     A                      A                      A
 Frequencies --   833.6361               952.3721              1100.9370
 Red. masses --     1.3926                 5.0288                 1.4587
 Frc consts  --     0.5702                 2.6874                 1.0417
 IR Inten    --    11.8671                 2.2383                 9.0749

                    10                     11                     12
                     A                      A                      A
 Frequencies --  1140.5890              1205.9076              1274.4088
 Red. masses --     1.4256                 2.1523                 2.3586
 Frc consts  --     1.0927                 1.8441                 2.2570
 IR Inten    --     9.5890                15.7823                 0.8684

                    13                     14                     15
                     A                      A                      A
 Frequencies --  1456.9902              1472.1363              1688.1607
 Red. masses --     2.6001                 3.6245                 7.7999
 Frc consts  --     3.2520                 4.6280                13.0969
 IR Inten    --    37.2860                19.3421                 3.0541

                    16                     17                     18
                     A                      A                      A
 Frequencies --  3274.4284              3323.1311              3565.8899
 Red. masses --     1.1037                 1.1149                 1.0859
 Frc consts  --     6.9724                 7.2539                 8.1350
 IR Inten    --    37.2112                86.7905               254.9188

 - Thermochemistry -
 -------------------
 Temperature   298.150 Kelvin.  Pressure   1.00000 Atm.
 Atom     1 has atomic number  6 and mass  12.00000

 Molecular mass:    67.02962 amu.
 Principal axes and moments of inertia in atomic units:
                           1         2         3
     Eigenvalues --   140.38957 215.79953 356.16825
           X            0.99932   0.03689   0.00024
           Y           -0.03689   0.99932   0.00017
           Z           -0.00023  -0.00017   1.00000
 This molecule is an asymmetric top.
 Rotational symmetry number  1.
 Rotational temperatures (Kelvin)      0.61695     0.40136     0.24318
 Rotational constants (GHZ):          12.85524     8.36305     5.06710
 Zero-point vibrational energy     148731.0 (Joules/Mol)
                                   35.54756 (Kcal/Mol)
 Warning -- explicit consideration of   2 degrees of freedom as
           vibrations may cause significant error
 Vibrational temperatures:    157.77   849.64   972.83   986.54  1077.44
          (Kelvin)           1102.71  1199.41  1370.25  1584.00  1641.05
                             1735.03  1833.59  2096.28  2118.07  2428.88
                             4711.17  4781.24  5130.51

 Zero-point correction=                           0.056649 (Hartree/Particle)
 Thermal correction to Energy=                    0.060989
 Thermal correction to Enthalpy=                  0.061933
 Thermal correction to Gibbs Free Energy=         0.029709
 Sum of electronic and zero-point Energies=           -225.146243
 Sum of electronic and thermal Energies=              -225.141902
 Sum of electronic and thermal Enthalpies=            -225.140958
 Sum of electronic and thermal Free Energies=         -225.173183

                     E (Thermal)             CV                S
                      KCal/Mol        Cal/Mol-Kelvin    Cal/Mol-Kelvin
 Total                   38.271             14.259             67.822
 Electronic               0.000              0.000              0.000
 Translational            0.889              2.981             38.526
 Rotational               0.889              2.981             23.893
 Vibrational             36.494              8.298              5.403
 Vibration     1          0.606              1.941              3.275
 Vibration     2          0.948              1.052              0.466

 Normal termination of Gaussian 09 at Tue Mar  6 05:42:29 2018.
