 Gaussian 09, Revision B.01,
 Gaussian 09:  EM64L-G09RevB.01 12-Aug-2010

 -------------------------------------------------
 #p Temperature=298.15 opt freq UB3LYP/aug-cc-pVDZ
 -------------------------------------------------

 ---------------------------------------
 Imidazole-2+-UB3LYP-aug-cc-pVDZ-Singlet
 ---------------------------------------
 Symbolic Z-matrix:
 Charge =  1 Multiplicity = 1

 SCF Done:  E(UB3LYP) =  -225.158099781     A.U. after   19 cycles
 SCF Done:  E(UB3LYP) =  -225.202518996     A.U. after   15 cycles
 SCF Done:  E(UB3LYP) =  -225.208947521     A.U. after   13 cycles
 SCF Done:  E(UB3LYP) =  -225.209073617     A.U. after   16 cycles
 SCF Done:  E(UB3LYP) =  -225.210028305     A.U. after   13 cycles
 SCF Done:  E(UB3LYP) =  -225.210091570     A.U. after   11 cycles
 SCF Done:  E(UB3LYP) =  -225.210116734     A.U. after   11 cycles
 SCF Done:  E(UB3LYP) =  -225.210128977     A.U. after   12 cycles
 SCF Done:  E(UB3LYP) =  -225.210132502     A.U. after   11 cycles
 SCF Done:  E(UB3LYP) =  -225.210133661     A.U. after   13 cycles
 Optimization completed.
    -- Stationary point found.
 Normal termination of Gaussian 09 at Tue Mar  6 05:12:39 2018.

 ----------------------------------------------------------------------
 #P Geom=AllCheck Guess=TCheck SCRF=Check GenChk UB3LYP/Aug-CC-pVDZ Fre
 q
 ----------------------------------------------------------------------

 Imidazole-2+-UB3LYP-aug-cc-pVDZ-Singlet
 ---------------------------------------
 Redundant internal coordinates taken from checkpoint file:
 Imidazole-2+-UB3LYP-aug-cc-pVDZ-Singlet.chk
 Charge =  1 Multiplicity = 1

                         Standard orientation:
 ---------------------------------------------------------------------
 Center     Atomic      Atomic             Coordinates (Angstroms)
 Number     Number       Type             X           Y           Z
 ---------------------------------------------------------------------
      1          6           0        0.013197   -1.080846    0.214671
      2          6           0        0.573557    0.929636    0.009712
      3          1           0        1.174012    1.821078    0.187953
      4          7           0        1.115359   -0.313453   -0.128817
      5          1           0        2.092814   -0.563140    0.023686
      6          6           0       -0.851807    0.743954    0.009148
      7          1           0       -1.632480    1.492653    0.128717
      8          7           0       -1.121649   -0.587555   -0.119973
 ---------------------------------------------------------------------

 SCF Done:  E(UB3LYP) =  -225.210133661     A.U. after    1 cycles

 The electronic state is 1-A.
 Alpha  occ. eigenvalues --  -14.67749 -14.62015 -10.56433 -10.52427 -10.50802
 Alpha  occ. eigenvalues --   -1.31886  -1.17919  -1.00489  -0.88827  -0.86593
 Alpha  occ. eigenvalues --   -0.79797  -0.71682  -0.70999  -0.69709  -0.58886
 Alpha  occ. eigenvalues --   -0.56318  -0.50868
 Alpha virt. eigenvalues --   -0.40292  -0.26439  -0.23208  -0.17887  -0.13756
 Alpha virt. eigenvalues --   -0.12510  -0.11419  -0.10696  -0.09513  -0.08689
 Alpha virt. eigenvalues --   -0.06166  -0.05936  -0.05496  -0.04656  -0.03938

  Beta  occ. eigenvalues --  -14.67749 -14.62015 -10.56433 -10.52427 -10.50802
  Beta  occ. eigenvalues --   -1.31886  -1.17919  -1.00489  -0.88827  -0.86593
  Beta  occ. eigenvalues --   -0.79797  -0.71682  -0.70999  -0.69709  -0.58886
  Beta  occ. eigenvalues --   -0.56318  -0.50868
  Beta virt. eigenvalues --   -0.40292  -0.26439  -0.23208  -0.17887  -0.13756
  Beta virt. eigenvalues --   -0.12510  -0.11419  -0.10696  -0.09513  -0.08689
  Beta virt. eigenvalues --   -0.06166  -0.05936  -0.05496  -0.04656  -0.03938

 Mulliken atomic charges:
              1
     1  C    0.223636
     2  C    0.957175
     3  H   -0.328421
     4  N   -0.040245
     5  H   -0.029658
     6  C    0.638249
     7  H   -0.294196
     8  N   -0.126540
 Sum of Mulliken atomic charges =   1.00000

 Dipole moment (field-independent basis, Debye):
    X=              3.1194    Y=              1.8346    Z=              0.2645  Tot=              3.6286
 Quadrupole moment (field-independent basis, Debye-Ang):
   XX=            -16.8476   YY=            -18.6133   ZZ=            -27.5982
   XY=             -2.8957   XZ=             -0.0325   YZ=              1.0805

  Exact polarizability:  46.377   0.155  55.849   0.171  -2.947  25.912
 Approx polarizability:  82.503   0.805 139.688   1.852 -11.232  40.989

                     1                      2                      3
                     A                      A                      A
 Frequencies --   507.4353               562.2647               599.2933
 Red. masses --     2.8790                 3.1338                 3.2349
 Frc consts  --     0.4368                 0.5837                 0.6845
 IR Inten    --    54.8836                43.0514               111.9927

                     4                      5                      6
                     A                      A                      A
 Frequencies --   631.5657               769.9182               858.0858
 Red. masses --     2.1495                 2.3607                 2.3593
 Frc consts  --     0.5052                 0.8245                 1.0235
 IR Inten    --   101.0665                95.7906                33.4354

                     7                      8                      9
                     A                      A                      A
 Frequencies --   920.2009               970.8177              1041.0725
 Red. masses --     1.9225                 2.8875                 1.6619
 Frc consts  --     0.9592                 1.6034                 1.0613
 IR Inten    --     8.9856                54.3140                13.6111

                    10                     11                     12
                     A                      A                      A
 Frequencies --  1138.2896              1203.6074              1247.9003
 Red. masses --     1.4820                 4.7146                 1.4519
 Frc consts  --     1.1314                 4.0241                 1.3321
 IR Inten    --    26.1374                27.9033                38.4954

                    13                     14                     15
                     A                      A                      A
 Frequencies --  1363.1826              1423.6634              1485.9246
 Red. masses --     2.6163                 2.4338                 4.0319
 Frc consts  --     2.8645                 2.9063                 5.2450
 IR Inten    --    59.9483                67.6795                26.6939

                    16                     17                     18
                     A                      A                      A
 Frequencies --  3236.8287              3251.8428              3538.7076
 Red. masses --     1.0972                 1.1036                 1.0844
 Frc consts  --     6.7727                 6.8759                 8.0005
 IR Inten    --    33.8378                36.0223               236.1401

 - Thermochemistry -
 -------------------
 Temperature   298.150 Kelvin.  Pressure   1.00000 Atm.
 Atom     1 has atomic number  6 and mass  12.00000

 Molecular mass:    67.02962 amu.
 Principal axes and moments of inertia in atomic units:
                           1         2         3
     Eigenvalues --   156.87310 204.71338 354.20530
           X            0.99445  -0.10519   0.00091
           Y            0.10517   0.99437   0.01260
           Z           -0.00223  -0.01243   0.99992
 This molecule is an asymmetric top.
 Rotational symmetry number  1.
 Rotational temperatures (Kelvin)      0.55213     0.42310     0.24453
 Rotational constants (GHZ):          11.50447     8.81594     5.09518
 Zero-point vibrational energy     148041.5 (Joules/Mol)
                                   35.38276 (Kcal/Mol)
 Warning -- explicit consideration of   3 degrees of freedom as
           vibrations may cause significant error
 Vibrational temperatures:    730.09   808.97   862.25   908.68  1107.74
          (Kelvin)           1234.59  1323.96  1396.79  1497.87  1637.74
                             1731.72  1795.45  1961.31  2048.33  2137.91
                             4657.07  4678.67  5091.40

 Zero-point correction=                           0.056386 (Hartree/Particle)
 Thermal correction to Energy=                    0.060269
 Thermal correction to Enthalpy=                  0.061213
 Thermal correction to Gibbs Free Energy=         0.030154
 Sum of electronic and zero-point Energies=           -225.153748
 Sum of electronic and thermal Energies=              -225.149865
 Sum of electronic and thermal Enthalpies=            -225.148921
 Sum of electronic and thermal Free Energies=         -225.179980

                     E (Thermal)             CV                S
                      KCal/Mol        Cal/Mol-Kelvin    Cal/Mol-Kelvin
 Total                   37.819             13.709             65.369
 Electronic               0.000              0.000              0.000
 Translational            0.889              2.981             38.526
 Rotational               0.889              2.981             23.946
 Vibrational             36.042              7.748              2.898
 Vibration     1          0.863              1.234              0.640
 Vibration     2          0.918              1.113              0.519
 Vibration     3          0.957              1.033              0.451

 Optimization completed.
    -- Stationary point found.
 Normal termination of Gaussian 09 at Tue Mar  6 05:13:49 2018.
