 Gaussian 09, Revision B.01,
 Gaussian 09:  EM64L-G09RevB.01 12-Aug-2010

 -------------------------------------------------
 #p Temperature=298.15 opt freq UB3LYP/aug-cc-pVDZ
 -------------------------------------------------

 ------------------------------------------
 Imidazole-4-N2+-UB3LYP-aug-cc-pVDZ-Singlet
 ------------------------------------------
 Symbolic Z-matrix:
 Charge =  1 Multiplicity = 1

 SCF Done:  E(UB3LYP) =  -334.828357745     A.U. after   16 cycles
 SCF Done:  E(UB3LYP) =  -334.852119522     A.U. after   12 cycles
 SCF Done:  E(UB3LYP) =  -334.853287041     A.U. after   15 cycles
 SCF Done:  E(UB3LYP) =  -334.852858545     A.U. after   14 cycles
 SCF Done:  E(UB3LYP) =  -334.853415221     A.U. after   12 cycles
 SCF Done:  E(UB3LYP) =  -334.853480687     A.U. after   15 cycles
 SCF Done:  E(UB3LYP) =  -334.853486576     A.U. after   16 cycles
 SCF Done:  E(UB3LYP) =  -334.853487040     A.U. after    9 cycles
 SCF Done:  E(UB3LYP) =  -334.853488214     A.U. after   16 cycles
 Optimization completed.
    -- Stationary point found.
 Normal termination of Gaussian 09 at Tue Mar  6 05:21:10 2018.

 ----------------------------------------------------------------------
 #P Geom=AllCheck Guess=TCheck SCRF=Check GenChk UB3LYP/Aug-CC-pVDZ Fre
 q
 ----------------------------------------------------------------------

 Imidazole-4-N2+-UB3LYP-aug-cc-pVDZ-Singlet
 ------------------------------------------
 Redundant internal coordinates taken from checkpoint file:
 Imidazole-4-N2+-UB3LYP-aug-cc-pVDZ-Singlet.chk
 Charge =  1 Multiplicity = 1

                         Standard orientation:
 ---------------------------------------------------------------------
 Center     Atomic      Atomic             Coordinates (Angstroms)
 Number     Number       Type             X           Y           Z
 ---------------------------------------------------------------------
      1          7           0        1.677687    0.013330   -0.000029
      2          7           0        2.792459   -0.013587    0.000081
      3          6           0        0.315785    0.011580   -0.000155
      4          6           0       -1.632226   -0.788669   -0.000076
      5          1           0       -2.494981   -1.447193    0.000385
      6          7           0       -1.747174    0.594811   -0.000023
      7          1           0       -2.616959    1.120971    0.000297
      8          6           0       -0.511992    1.136527    0.000042
      9          1           0       -0.306634    2.201902   -0.000004
     10          7           0       -0.381661   -1.170599    0.000037
 ---------------------------------------------------------------------

 SCF Done:  E(UB3LYP) =  -334.853488214     A.U. after    1 cycles

 The electronic state is 1-A.
 Alpha  occ. eigenvalues --  -14.73638 -14.70054 -14.62225 -14.55064 -10.50222
 Alpha  occ. eigenvalues --  -10.47595 -10.46654  -1.38944  -1.25864  -1.12976
 Alpha  occ. eigenvalues --   -1.06693  -0.94380  -0.84943  -0.80100  -0.75215
 Alpha  occ. eigenvalues --   -0.74322  -0.72954  -0.69972  -0.66732  -0.65942
 Alpha  occ. eigenvalues --   -0.64987  -0.52438  -0.50980  -0.47559
 Alpha virt. eigenvalues --   -0.29936  -0.29500  -0.19897  -0.16254  -0.14208
 Alpha virt. eigenvalues --   -0.14083  -0.11736  -0.11163  -0.10034  -0.09739
 Alpha virt. eigenvalues --   -0.08338  -0.06097  -0.04977  -0.04913  -0.04596

  Beta  occ. eigenvalues --  -14.73638 -14.70054 -14.62225 -14.55064 -10.50222
  Beta  occ. eigenvalues --  -10.47595 -10.46654  -1.38944  -1.25864  -1.12976
  Beta  occ. eigenvalues --   -1.06693  -0.94380  -0.84943  -0.80100  -0.75215
  Beta  occ. eigenvalues --   -0.74322  -0.72954  -0.69972  -0.66732  -0.65942
  Beta  occ. eigenvalues --   -0.64987  -0.52438  -0.50980  -0.47559
  Beta virt. eigenvalues --   -0.29936  -0.29500  -0.19897  -0.16254  -0.14208
  Beta virt. eigenvalues --   -0.14083  -0.11736  -0.11163  -0.10034  -0.09739
  Beta virt. eigenvalues --   -0.08338  -0.06097  -0.04977  -0.04913  -0.04596

 Mulliken atomic charges:
              1
     1  N    0.532720
     2  N   -0.454088
     3  C    0.398158
     4  C    0.788787
     5  H   -0.286499
     6  N   -0.094681
     7  H   -0.099452
     8  C    0.861362
     9  H   -0.434511
    10  N   -0.211797
 Sum of Mulliken atomic charges =   1.00000

 Dipole moment (field-independent basis, Debye):
    X=             -2.0592    Y=              3.3513    Z=              0.0006  Tot=              3.9334
 Quadrupole moment (field-independent basis, Debye-Ang):
   XX=            -13.5565   YY=            -31.0791   ZZ=            -37.8828
   XY=             -1.1762   XZ=             -0.0024   YZ=              0.0002

  Exact polarizability:  95.590  -1.646  53.459   0.001   0.001  32.246
 Approx polarizability: 185.760 -10.801  88.983   0.005   0.002  48.536

                     1                      2                      3
                     A                      A                      A
 Frequencies --   177.9480               183.3607               507.3881
 Red. masses --     6.8531                 7.7266                11.4307
 Frc consts  --     0.1279                 0.1531                 1.7338
 IR Inten    --     3.9197                 1.2445                 2.5725

                     4                      5                      6
                     A                      A                      A
 Frequencies --   545.4028               591.1595               612.7004
 Red. masses --     8.5709                10.8357                 3.0836
 Frc consts  --     1.5021                 2.2311                 0.6820
 IR Inten    --     2.5624                 8.4496                21.1173

                     7                      8                      9
                     A                      A                      A
 Frequencies --   658.7898               717.2427               850.9636
 Red. masses --     4.4210                 1.1638                 1.3983
 Frc consts  --     1.1305                 0.3528                 0.5966
 IR Inten    --     1.8738               105.9169                 0.7271

                    10                     11                     12
                     A                      A                      A
 Frequencies --   895.6811               937.9552               974.5533
 Red. masses --     1.4132                 5.9381                 3.8745
 Frc consts  --     0.6680                 3.0780                 2.1681
 IR Inten    --    14.3068                 1.8743                22.1369

                    13                     14                     15
                     A                      A                      A
 Frequencies --  1073.4557              1117.6812              1254.7076
 Red. masses --     2.6444                 1.4009                 1.3781
 Frc consts  --     1.7953                 1.0311                 1.2783
 IR Inten    --     2.2358                69.3140                10.2177

                    16                     17                     18
                     A                      A                      A
 Frequencies --  1291.3298              1378.6969              1402.1149
 Red. masses --     6.3393                 2.6227                 4.9352
 Frc consts  --     6.2282                 2.9373                 5.7164
 IR Inten    --    23.5257                63.3732                57.0933

                    19                     20                     21
                     A                      A                      A
 Frequencies --  1522.1610              1561.8316              2339.5452
 Red. masses --     3.6188                 3.7864                13.9800
 Frc consts  --     4.9402                 5.4418                45.0839
 IR Inten    --    48.7132                27.8831               235.4272

                    22                     23                     24
                     A                      A                      A
 Frequencies --  3269.5595              3278.4080              3576.3569
 Red. masses --     1.1019                 1.1043                 1.0840
 Frc consts  --     6.9401                 6.9932                 8.1689
 IR Inten    --    29.5405                27.5785               213.4188

 - Thermochemistry -
 -------------------
 Temperature   298.150 Kelvin.  Pressure   1.00000 Atm.
 Atom     1 has atomic number  7 and mass  14.00307

 Molecular mass:    95.03577 amu.
 Principal axes and moments of inertia in atomic units:
                           1         2         3
     Eigenvalues --   197.62500 866.592741064.21774
           X            1.00000  -0.00054  -0.00001
           Y            0.00054   1.00000   0.00000
           Z            0.00001   0.00000   1.00000
 This molecule is an asymmetric top.
 Rotational symmetry number  1.
 Rotational temperatures (Kelvin)      0.43827     0.09995     0.08139
 Rotational constants (GHZ):           9.13215     2.08257     1.69584
 Zero-point vibrational energy     183740.4 (Joules/Mol)
                                   43.91501 (Kcal/Mol)
 Warning -- explicit consideration of   6 degrees of freedom as
           vibrations may cause significant error
 Vibrational temperatures:    256.03   263.81   730.02   784.71   850.55
          (Kelvin)            881.54   947.85  1031.95  1224.35  1288.68
                             1349.51  1402.16  1544.46  1608.09  1805.24
                             1857.93  1983.63  2017.33  2190.05  2247.12
                             3366.08  4704.16  4716.89  5145.57

 Zero-point correction=                           0.069983 (Hartree/Particle)
 Thermal correction to Energy=                    0.075272
 Thermal correction to Enthalpy=                  0.076216
 Thermal correction to Gibbs Free Energy=         0.040854
 Sum of electronic and zero-point Energies=           -334.783505
 Sum of electronic and thermal Energies=              -334.778217
 Sum of electronic and thermal Enthalpies=            -334.777272
 Sum of electronic and thermal Free Energies=         -334.812635

                     E (Thermal)             CV                S
                      KCal/Mol        Cal/Mol-Kelvin    Cal/Mol-Kelvin
 Total                   47.234             19.016             74.426
 Electronic               0.000              0.000              0.000
 Translational            0.889              2.981             39.566
 Rotational               0.889              2.981             26.702
 Vibrational             45.456             13.055              8.158
 Vibration     1          0.628              1.869              2.350
 Vibration     2          0.631              1.862              2.294
 Vibration     3          0.863              1.234              0.640
 Vibration     4          0.901              1.150              0.554
 Vibration     5          0.949              1.051              0.465
 Vibration     6          0.972              1.005              0.428

 Optimization completed.
    -- Stationary point found.
 Normal termination of Gaussian 09 at Tue Mar  6 05:24:36 2018.
