 Gaussian 09, Revision B.01,
 Gaussian 09:  EM64L-G09RevB.01 12-Aug-2010

 -------------------------------------------------
 #p Temperature=298.15 opt freq UB3LYP/aug-cc-pVDZ
 -------------------------------------------------

 ------------------------------------------
 Imidazole-2-N2+-UB3LYP-aug-cc-pVDZ-Triplet
 ------------------------------------------
 Symbolic Z-matrix:
 Charge =  1 Multiplicity = 3

 SCF Done:  E(UB3LYP) =  -334.726638669     A.U. after   24 cycles
 SCF Done:  E(UB3LYP) =  -334.745879725     A.U. after   20 cycles
 SCF Done:  E(UB3LYP) =  -334.746915424     A.U. after   22 cycles
 SCF Done:  E(UB3LYP) =  -334.746958192     A.U. after   22 cycles
 SCF Done:  E(UB3LYP) =  -334.746995902     A.U. after   17 cycles
 SCF Done:  E(UB3LYP) =  -334.747019849     A.U. after   14 cycles
 SCF Done:  E(UB3LYP) =  -334.747069068     A.U. after   17 cycles
 SCF Done:  E(UB3LYP) =  -334.723979551     A.U. after   25 cycles
 SCF Done:  E(UB3LYP) =  -334.747079740     A.U. after   21 cycles
 SCF Done:  E(UB3LYP) =  -334.748444684     A.U. after   20 cycles
 SCF Done:  E(UB3LYP) =  -334.768879509     A.U. after   16 cycles
 SCF Done:  E(UB3LYP) =  -334.769144282     A.U. after   15 cycles
 SCF Done:  E(UB3LYP) =  -334.769316311     A.U. after   14 cycles
 SCF Done:  E(UB3LYP) =  -334.769444061     A.U. after   16 cycles
 SCF Done:  E(UB3LYP) =  -334.769485796     A.U. after   15 cycles
 SCF Done:  E(UB3LYP) =  -334.769520864     A.U. after   13 cycles
 SCF Done:  E(UB3LYP) =  -334.769546320     A.U. after   14 cycles
 SCF Done:  E(UB3LYP) =  -334.769549161     A.U. after   13 cycles
 SCF Done:  E(UB3LYP) =  -334.769549644     A.U. after   12 cycles
 Optimization completed.
    -- Stationary point found.
 Normal termination of Gaussian 09 at Fri Jan 21 00:22:15 2005.

 ----------------------------------------------------------------------
 #P Geom=AllCheck Guess=TCheck SCRF=Check GenChk UB3LYP/Aug-CC-pVDZ Fre
 q
 ----------------------------------------------------------------------

 Imidazole-2-N2+-UB3LYP-aug-cc-pVDZ-Triplet
 ------------------------------------------
 Redundant internal coordinates taken from checkpoint file:
 Imidazole-2-N2+-UB3LYP-aug-cc-pVDZ-Triplet.chk
 Charge =  1 Multiplicity = 3

                         Standard orientation:
 ---------------------------------------------------------------------
 Center     Atomic      Atomic             Coordinates (Angstroms)
 Number     Number       Type             X           Y           Z
 ---------------------------------------------------------------------
      1          7           0       -1.674546    0.482627   -0.000117
      2          7           0       -2.555787   -0.336824    0.000114
      3          6           0       -0.330941    0.098109   -0.000074
      4          6           0        1.828061    0.491033   -0.000059
      5          1           0        2.779067    1.020535    0.000090
      6          7           0        0.641782    1.096824    0.000057
      7          1           0        0.453743    2.098978    0.000280
      8          6           0        1.524399   -0.941991   -0.000001
      9          1           0        2.248673   -1.755128    0.000269
     10          7           0        0.215609   -1.135096   -0.000030
 ---------------------------------------------------------------------

 SCF Done:  E(UB3LYP) =  -334.769549644     A.U. after    1 cycles

 The electronic state is 3-A.
 Alpha  occ. eigenvalues --  -14.66302 -14.63080 -14.62524 -14.58334 -10.56635
 Alpha  occ. eigenvalues --  -10.52359 -10.49325  -1.31527  -1.27589  -1.15770
 Alpha  occ. eigenvalues --   -1.04314  -0.93157  -0.88198  -0.85820  -0.76907
 Alpha  occ. eigenvalues --   -0.72684  -0.71483  -0.69587  -0.66802  -0.63988
 Alpha  occ. eigenvalues --   -0.61752  -0.56328  -0.53167  -0.50642  -0.43065
 Alpha virt. eigenvalues --   -0.30488  -0.24008  -0.17790  -0.17721  -0.14102
 Alpha virt. eigenvalues --   -0.13537  -0.11773  -0.11240  -0.09277  -0.08582
 Alpha virt. eigenvalues --   -0.06245  -0.05674  -0.05534  -0.05058  -0.04349

  Beta  occ. eigenvalues --  -14.66443 -14.62948 -14.60392 -14.58474 -10.55620
  Beta  occ. eigenvalues --  -10.51744 -10.48928  -1.30410  -1.25755  -1.15676
  Beta  occ. eigenvalues --   -1.01718  -0.91202  -0.87527  -0.85085  -0.75996
  Beta  occ. eigenvalues --   -0.70467  -0.70325  -0.68595  -0.63057  -0.61839
  Beta  occ. eigenvalues --   -0.57825  -0.55975  -0.53087
  Beta virt. eigenvalues --   -0.40666  -0.27039  -0.26973  -0.20740  -0.17620
  Beta virt. eigenvalues --   -0.15213  -0.13862  -0.13281  -0.11464  -0.10976
  Beta virt. eigenvalues --   -0.09106  -0.08334  -0.05912  -0.05454  -0.05230

 Mulliken atomic charges:
              1
     1  N    0.186805
     2  N   -0.370826
     3  C    0.449492
     4  C    0.893194
     5  H   -0.364777
     6  N    0.041631
     7  H   -0.084675
     8  C    0.706769
     9  H   -0.331140
    10  N   -0.126473
 Sum of Mulliken atomic charges =   1.00000

 Dipole moment (field-independent basis, Debye):
    X=              5.9505    Y=              3.1573    Z=              0.0005  Tot=              6.7363
 Quadrupole moment (field-independent basis, Debye-Ang):
   XX=            -21.8534   YY=            -29.3751   ZZ=            -36.7663
   XY=             -0.0461   XZ=              0.0010   YZ=              0.0010

  Exact polarizability:  87.582   2.100  54.052   0.000   0.000  32.041
 Approx polarizability: 143.492   7.752  89.037  -0.002  -0.002  49.158

                     1                      2                      3
                     A                      A                      A
 Frequencies --    81.4127               232.6809               233.8329
 Red. masses --    10.3837                 6.3168                 8.0350
 Frc consts  --     0.0405                 0.2015                 0.2588
 IR Inten    --     2.5157                 0.5698                 0.1513

                     4                      5                      6
                     A                      A                      A
 Frequencies --   498.9324               530.5973               675.7186
 Red. masses --     7.5133                 2.3989                 4.9431
 Frc consts  --     1.1020                 0.3979                 1.3298
 IR Inten    --    13.4463                 0.8445                 0.0046

                     7                      8                      9
                     A                      A                      A
 Frequencies --   680.5754               730.5800               827.3088
 Red. masses --    11.4493                 1.3063                 1.2108
 Frc consts  --     3.1245                 0.4108                 0.4883
 IR Inten    --     2.8261               132.6568                 3.3236

                    10                     11                     12
                     A                      A                      A
 Frequencies --   859.6938               931.8265               951.3903
 Red. masses --     8.3763                 1.6487                 2.9962
 Frc consts  --     3.6475                 0.8435                 1.5978
 IR Inten    --     6.2784                 3.0739                 1.7485

                    13                     14                     15
                     A                      A                      A
 Frequencies --  1019.8346              1089.6612              1179.5197
 Red. masses --     3.1970                 1.6464                 2.2914
 Frc consts  --     1.9591                 1.1518                 1.8783
 IR Inten    --     8.6156                 0.5377                65.4652

                    16                     17                     18
                     A                      A                      A
 Frequencies --  1251.4696              1315.0948              1416.2465
 Red. masses --     2.6805                 2.7768                 4.2496
 Frc consts  --     2.4735                 2.8295                 5.0220
 IR Inten    --    62.9634                 3.1112                44.5145

                    19                     20                     21
                     A                      A                      A
 Frequencies --  1444.9498              1513.1478              1690.5220
 Red. masses --     2.0952                 4.0352                12.5923
 Frc consts  --     2.5773                 5.4434                21.2030
 IR Inten    --   118.2104                 3.3543                48.9186

                    22                     23                     24
                     A                      A                      A
 Frequencies --  3240.3870              3253.4645              3540.4154
 Red. masses --     1.0989                 1.1033                 1.0847
 Frc consts  --     6.7980                 6.8810                 8.0107
 IR Inten    --    22.0696                39.8878               223.4462

 - Thermochemistry -
 -------------------
 Temperature   298.150 Kelvin.  Pressure   1.00000 Atm.
 Atom     1 has atomic number  7 and mass  14.00307

 Molecular mass:    95.03577 amu.
 Principal axes and moments of inertia in atomic units:
                           1         2         3
     Eigenvalues --   221.30129 782.883701004.18499
           X            1.00000  -0.00051   0.00000
           Y            0.00051   1.00000   0.00000
           Z            0.00000   0.00000   1.00000
 This molecule is an asymmetric top.
 Rotational symmetry number  1.
 Rotational temperatures (Kelvin)      0.39138     0.11063     0.08625
 Rotational constants (GHZ):           8.15513     2.30525     1.79722
 Zero-point vibrational energy     174590.6 (Joules/Mol)
                                   41.72815 (Kcal/Mol)
 Warning -- explicit consideration of   5 degrees of freedom as
           vibrations may cause significant error
 Vibrational temperatures:    117.13   334.78   336.43   717.85   763.41
          (Kelvin)            972.21   979.19  1051.14  1190.31  1236.91
                             1340.69  1368.84  1467.31  1567.78  1697.06
                             1800.58  1892.13  2037.66  2078.96  2177.08
                             2432.28  4662.19  4681.00  5093.86

 Zero-point correction=                           0.066498 (Hartree/Particle)
 Thermal correction to Energy=                    0.072242
 Thermal correction to Enthalpy=                  0.073187
 Thermal correction to Gibbs Free Energy=         0.035630
 Sum of electronic and zero-point Energies=           -334.703052
 Sum of electronic and thermal Energies=              -334.697307
 Sum of electronic and thermal Enthalpies=            -334.696363
 Sum of electronic and thermal Free Energies=         -334.733919

                     E (Thermal)             CV                S
                      KCal/Mol        Cal/Mol-Kelvin    Cal/Mol-Kelvin
 Total                   45.333             19.987             79.044
 Electronic               0.000              0.000              2.183
 Translational            0.889              2.981             39.566
 Rotational               0.889              2.981             26.656
 Vibrational             43.555             14.026             10.639
 Vibration     1          0.600              1.962              3.857
 Vibration     2          0.653              1.791              1.858
 Vibration     3          0.654              1.789              1.849
 Vibration     4          0.854              1.252              0.661
 Vibration     5          0.886              1.182              0.586

 Optimization completed.
    -- Stationary point found.
 Normal termination of Gaussian 09 at Fri Jan 21 00:25:46 2005.
