 Gaussian 09, Revision B.01,
 Gaussian 09:  EM64L-G09RevB.01 12-Aug-2010

 -------------------------------------------------
 #p Temperature=298.15 opt freq UB3LYP/aug-cc-pVDZ
 -------------------------------------------------

 ----------------------------------------
 Imidazole-5-N2-UB3LYP-aug-cc-pVDZ-Duplet
 ----------------------------------------
 Symbolic Z-matrix:
 Charge =  0 Multiplicity = 2

 SCF Done:  E(UB3LYP) =  -335.049665144     A.U. after   25 cycles
 SCF Done:  E(UB3LYP) =  -335.070515804     A.U. after   42 cycles
 SCF Done:  E(UB3LYP) =  -335.072186090     A.U. after   24 cycles
 SCF Done:  E(UB3LYP) =  -335.074148301     A.U. after   28 cycles
 SCF Done:  E(UB3LYP) =  -335.080121679     A.U. after   22 cycles
 SCF Done:  E(UB3LYP) =  -335.064740904     A.U. after   20 cycles
 SCF Done:  E(UB3LYP) =  -335.081842169     A.U. after   21 cycles
 SCF Done:  E(UB3LYP) =  -335.081711882     A.U. after   18 cycles
 SCF Done:  E(UB3LYP) =  -335.086085401     A.U. after   19 cycles
 SCF Done:  E(UB3LYP) =  -335.088495194     A.U. after   21 cycles
 SCF Done:  E(UB3LYP) =  -335.094823735     A.U. after   15 cycles
 SCF Done:  E(UB3LYP) =  -335.097533856     A.U. after   15 cycles
 SCF Done:  E(UB3LYP) =  -335.099663009     A.U. after   19 cycles
 SCF Done:  E(UB3LYP) =  -335.101257777     A.U. after   19 cycles
 SCF Done:  E(UB3LYP) =  -335.102160011     A.U. after   19 cycles
 SCF Done:  E(UB3LYP) =  -335.102710785     A.U. after   16 cycles
 SCF Done:  E(UB3LYP) =  -335.103050697     A.U. after   17 cycles
 SCF Done:  E(UB3LYP) =  -335.103082420     A.U. after   13 cycles
 SCF Done:  E(UB3LYP) =  -335.103089055     A.U. after   22 cycles
 Optimization completed.
    -- Stationary point found.
 Normal termination of Gaussian 09 at Tue Mar  6 09:55:18 2018.

 ----------------------------------------------------------------------
 #P Geom=AllCheck Guess=TCheck SCRF=Check GenChk UB3LYP/Aug-CC-pVDZ Fre
 q
 ----------------------------------------------------------------------

 Imidazole-5-N2-UB3LYP-aug-cc-pVDZ-Duplet
 ----------------------------------------
 Redundant internal coordinates taken from checkpoint file:
 Imidazole-5-N2-UB3LYP-aug-cc-pVDZ-Duplet.chk
 Charge =  0 Multiplicity = 2

                         Standard orientation:
 ---------------------------------------------------------------------
 Center     Atomic      Atomic             Coordinates (Angstroms)
 Number     Number       Type             X           Y           Z
 ---------------------------------------------------------------------
      1          7           0       -1.701938   -0.465610    0.000058
      2          7           0       -2.631788    0.280680   -0.000165
      3          6           0       -0.344224   -0.083037    0.000278
      4          6           0        0.346258    1.117858   -0.000015
      5          1           0       -0.067219    2.120562    0.000956
      6          6           0        1.828212   -0.441640   -0.000080
      7          1           0        2.769753   -0.979773    0.000867
      8          7           0        0.622739   -1.069259    0.000031
      9          1           0        0.440993   -2.064181   -0.000576
     10          7           0        1.693130    0.877662   -0.000260
 ---------------------------------------------------------------------

 SCF Done:  E(UB3LYP) =  -335.103089055     A.U. after    1 cycles

 The electronic state is 2-A.
 Alpha  occ. eigenvalues --  -14.43285 -14.42301 -14.40589 -14.34678 -10.28089
 Alpha  occ. eigenvalues --  -10.27405 -10.23623  -1.08678  -1.04940  -0.90985
 Alpha  occ. eigenvalues --   -0.80796  -0.70398  -0.65103  -0.61967  -0.54134
 Alpha  occ. eigenvalues --   -0.49530  -0.48502  -0.47264  -0.44259  -0.42949
 Alpha  occ. eigenvalues --   -0.42014  -0.31907  -0.30715  -0.26471  -0.21997
 Alpha virt. eigenvalues --   -0.08200  -0.02344  -0.00365   0.00870   0.01123
 Alpha virt. eigenvalues --    0.03609   0.03693   0.04693   0.05567   0.05786
 Alpha virt. eigenvalues --    0.07878   0.07900   0.08663   0.08785   0.09210

  Beta  occ. eigenvalues --  -14.42946 -14.42312 -14.38950 -14.34654 -10.27751
  Beta  occ. eigenvalues --  -10.27429 -10.23641  -1.07277  -1.04430  -0.90905
  Beta  occ. eigenvalues --   -0.79775  -0.69223  -0.65016  -0.61766  -0.53467
  Beta  occ. eigenvalues --   -0.48474  -0.48276  -0.44391  -0.43804  -0.42342
  Beta  occ. eigenvalues --   -0.38581  -0.31929  -0.30216  -0.26092
  Beta virt. eigenvalues --   -0.07620  -0.07077  -0.02235  -0.00372   0.00894
  Beta virt. eigenvalues --    0.01196   0.03727   0.03761   0.04765   0.05609
  Beta virt. eigenvalues --    0.05938   0.07919   0.07959   0.08653   0.08836

 Mulliken atomic charges:
              1
     1  N    0.129867
     2  N   -0.586281
     3  C    0.471285
     4  C    0.764108
     5  H   -0.452824
     6  C    0.580544
     7  H   -0.347846
     8  N    0.002137
     9  H   -0.193675
    10  N   -0.367315
 Sum of Mulliken atomic charges =   0.00000

 Dipole moment (field-independent basis, Debye):
    X=              1.7226    Y=             -2.9616    Z=              0.0011  Tot=              3.4261
 Quadrupole moment (field-independent basis, Debye-Ang):
   XX=            -48.7015   YY=            -35.0295   ZZ=            -40.9780
   XY=             -5.8718   XZ=              0.0019   YZ=              0.0037

  Exact polarizability:  97.287  -2.853  63.985  -0.003  -0.001  38.762
 Approx polarizability: 160.465  -5.759 106.848  -0.011  -0.007  58.142

                     1                      2                      3
                     A                      A                      A
 Frequencies --   150.3221               227.4128               274.8044
 Red. masses --     7.4126                 6.9718                10.5175
 Frc consts  --     0.0987                 0.2124                 0.4680
 IR Inten    --     0.1779                 3.8631                 1.5853

                     4                      5                      6
                     A                      A                      A
 Frequencies --   498.7183               578.3686               638.8222
 Red. masses --     7.5969                 1.5767                 2.5345
 Frc consts  --     1.1133                 0.3107                 0.6094
 IR Inten    --    15.2575                81.4374                24.6948

                     7                      8                      9
                     A                      A                      A
 Frequencies --   660.2460               676.7589               836.8834
 Red. masses --    10.1312                 2.4918                 1.4171
 Frc consts  --     2.6021                 0.6724                 0.5848
 IR Inten    --    30.7550                 2.1275                20.2704

                    10                     11                     12
                     A                      A                      A
 Frequencies --   876.3394               921.2002              1015.4915
 Red. masses --     1.4224                 6.0001                 4.6112
 Frc consts  --     0.6436                 3.0000                 2.8017
 IR Inten    --    13.6092                 8.3373                 8.2098

                    13                     14                     15
                     A                      A                      A
 Frequencies --  1089.8354              1144.7156              1248.9617
 Red. masses --     1.5118                 1.6665                 1.8356
 Frc consts  --     1.0580                 1.2866                 1.6870
 IR Inten    --    57.8646                19.9702                11.0818

                    16                     17                     18
                     A                      A                      A
 Frequencies --  1271.0464              1356.8731              1445.8589
 Red. masses --     3.1547                 5.5855                 3.6141
 Frc consts  --     3.0028                 6.0589                 4.4515
 IR Inten    --     2.1950                28.0866                13.7893

                    19                     20                     21
                     A                      A                      A
 Frequencies --  1463.4115              1547.2411              1805.9865
 Red. masses --     4.0327                 3.5568                13.6319
 Frc consts  --     5.0883                 5.0168                26.1961
 IR Inten    --    28.2490                17.4721                41.6427

                    22                     23                     24
                     A                      A                      A
 Frequencies --  3261.7261              3265.8420              3629.8636
 Red. masses --     1.0966                 1.1003                 1.0821
 Frc consts  --     6.8738                 6.9141                 8.4002
 IR Inten    --     0.3963                 1.8640                81.4424

 - Thermochemistry -
 -------------------
 Temperature   298.150 Kelvin.  Pressure   1.00000 Atm.
 Atom     1 has atomic number  7 and mass  14.00307

 Molecular mass:    95.03577 amu.
 Principal axes and moments of inertia in atomic units:
                           1         2         3
     Eigenvalues --   207.32837 835.639111042.96745
           X            0.99977  -0.02143   0.00001
           Y            0.02143   0.99977   0.00004
           Z           -0.00001  -0.00004   1.00000
 This molecule is an asymmetric top.
 Rotational symmetry number  1.
 Rotational temperatures (Kelvin)      0.41776     0.10365     0.08305
 Rotational constants (GHZ):           8.70475     2.15971     1.73039
 Zero-point vibrational energy     178762.3 (Joules/Mol)
                                   42.72522 (Kcal/Mol)
 Warning -- explicit consideration of   5 degrees of freedom as
           vibrations may cause significant error
 Vibrational temperatures:    216.28   327.20   395.38   717.54   832.14
          (Kelvin)            919.12   949.95   973.70  1204.09  1260.86
                             1325.40  1461.06  1568.03  1646.99  1796.98
                             1828.75  1952.24  2080.27  2105.52  2226.13
                             2598.41  4692.89  4698.81  5222.56

 Zero-point correction=                           0.068087 (Hartree/Particle)
 Thermal correction to Energy=                    0.073634
 Thermal correction to Enthalpy=                  0.074579
 Thermal correction to Gibbs Free Energy=         0.038092
 Sum of electronic and zero-point Energies=           -335.035002
 Sum of electronic and thermal Energies=              -335.029455
 Sum of electronic and thermal Enthalpies=            -335.028510
 Sum of electronic and thermal Free Energies=         -335.064997

                     E (Thermal)             CV                S
                      KCal/Mol        Cal/Mol-Kelvin    Cal/Mol-Kelvin
 Total                   46.206             19.660             76.793
 Electronic               0.000              0.000              1.377
 Translational            0.889              2.981             39.566
 Rotational               0.889              2.981             26.694
 Vibrational             44.429             13.699              9.155
 Vibration     1          0.618              1.902              2.668
 Vibration     2          0.651              1.799              1.899
 Vibration     3          0.677              1.720              1.566
 Vibration     4          0.854              1.253              0.661
 Vibration     5          0.935              1.078              0.488

 Optimization completed.
    -- Stationary point found.
 Normal termination of Gaussian 09 at Tue Mar  6 09:59:00 2018.
