 Gaussian 09, Revision B.01,
 Gaussian 09:  EM64L-G09RevB.01 12-Aug-2010

 -------------------------------------------------
 #p Temperature=298.15 opt freq UB3LYP/aug-cc-pVDZ
 -------------------------------------------------

 -------------------------------------
 Imidazole-5-UB3LYP-aug-cc-pVDZ-Duplet
 -------------------------------------
 Symbolic Z-matrix:
 Charge =  0 Multiplicity = 2

 SCF Done:  E(UB3LYP) =  -225.535299353     A.U. after   20 cycles
 SCF Done:  E(UB3LYP) =  -225.549476292     A.U. after   18 cycles
 SCF Done:  E(UB3LYP) =  -225.550279365     A.U. after   20 cycles
 SCF Done:  E(UB3LYP) =  -225.550316238     A.U. after   14 cycles
 SCF Done:  E(UB3LYP) =  -225.550347905     A.U. after   14 cycles
 SCF Done:  E(UB3LYP) =  -225.550412805     A.U. after   21 cycles
 SCF Done:  E(UB3LYP) =  -225.550415629     A.U. after   19 cycles
 Optimization completed.
    -- Stationary point found.
 Normal termination of Gaussian 09 at Tue Mar  6 10:01:09 2018.

 ----------------------------------------------------------------------
 #P Geom=AllCheck Guess=TCheck SCRF=Check GenChk UB3LYP/Aug-CC-pVDZ Fre
 q
 ----------------------------------------------------------------------

 Imidazole-5-UB3LYP-aug-cc-pVDZ-Duplet
 -------------------------------------
 Redundant internal coordinates taken from checkpoint file:
 Imidazole-5-UB3LYP-aug-cc-pVDZ-Duplet.chk
 Charge =  0 Multiplicity = 2

                         Standard orientation:
 ---------------------------------------------------------------------
 Center     Atomic      Atomic             Coordinates (Angstroms)
 Number     Number       Type             X           Y           Z
 ---------------------------------------------------------------------
      1          6           0        0.199410   -1.177923    0.000026
      2          6           0        1.194871   -0.236800    0.000017
      3          1           0        2.269705   -0.364735   -0.000145
      4          6           0       -0.715857    0.809410    0.000039
      5          1           0       -1.475239    1.583920   -0.000185
      6          7           0       -1.009833   -0.528423   -0.000145
      7          1           0       -1.922545   -0.959388    0.000584
      8          7           0        0.589481    1.010149    0.000040
 ---------------------------------------------------------------------

 SCF Done:  E(UB3LYP) =  -225.550415629     A.U. after    1 cycles

 The electronic state is 2-A.
 Alpha  occ. eigenvalues --  -14.40843 -14.33746 -10.25581 -10.25280 -10.21556
 Alpha  occ. eigenvalues --   -1.03727  -0.89053  -0.75718  -0.63425  -0.60595
 Alpha  occ. eigenvalues --   -0.55204  -0.46517  -0.44890  -0.43028  -0.32935
 Alpha  occ. eigenvalues --   -0.30253  -0.27759  -0.24969
 Alpha virt. eigenvalues --   -0.01959   0.00044   0.01319   0.01391   0.03128
 Alpha virt. eigenvalues --    0.04498   0.05143   0.05196   0.06687   0.08421
 Alpha virt. eigenvalues --    0.08605   0.09893   0.09897   0.10476   0.10960

  Beta  occ. eigenvalues --  -14.40773 -14.33513 -10.25536 -10.23721 -10.21528
  Beta  occ. eigenvalues --   -1.03002  -0.88563  -0.74387  -0.62959  -0.60019
  Beta  occ. eigenvalues --   -0.53804  -0.45813  -0.44571  -0.42820  -0.30158
  Beta  occ. eigenvalues --   -0.28937  -0.24101
  Beta virt. eigenvalues --   -0.13660  -0.01904   0.00566   0.01346   0.01600
  Beta virt. eigenvalues --    0.04053   0.04900   0.05154   0.05347   0.06810
  Beta virt. eigenvalues --    0.08514   0.08614   0.09998   0.10049   0.10590

 Mulliken atomic charges:
              1
     1  C   -0.049368
     2  C    0.640067
     3  H   -0.343839
     4  C    0.566874
     5  H   -0.298123
     6  N    0.013994
     7  H   -0.192745
     8  N   -0.336861
 Sum of Mulliken atomic charges =   0.00000

 Dipole moment (field-independent basis, Debye):
    X=             -2.8043    Y=             -1.3560    Z=              0.0005  Tot=              3.1149
 Quadrupole moment (field-independent basis, Debye-Ang):
   XX=            -22.3425   YY=            -31.1219   ZZ=            -31.4305
   XY=             -1.0075   XZ=             -0.0025   YZ=             -0.0011

  Exact polarizability:  56.132  -1.189  58.862  -0.001  -0.003  35.038
 Approx polarizability:  90.419   3.061 101.623   0.000  -0.001  48.227

                     1                      2                      3
                     A                      A                      A
 Frequencies --   454.1399               570.9507               675.0694
 Red. masses --     3.8333                 1.4228                 2.7678
 Frc consts  --     0.4658                 0.2733                 0.7432
 IR Inten    --     0.9764               109.2782                 2.5837

                     4                      5                      6
                     A                      A                      A
 Frequencies --   793.4056               819.0304               855.4613
 Red. masses --     1.3960                 1.2622                 6.5836
 Frc consts  --     0.5177                 0.4989                 2.8387
 IR Inten    --    24.6322                22.4653                35.8265

                     7                      8                      9
                     A                      A                      A
 Frequencies --   926.9518              1065.7856              1106.6608
 Red. masses --     6.8634                 1.8195                 1.7374
 Frc consts  --     3.4746                 1.2177                 1.2537
 IR Inten    --     8.7372                38.0604                 7.4035

                    10                     11                     12
                     A                      A                      A
 Frequencies --  1153.0481              1244.1680              1316.1431
 Red. masses --     5.3324                 1.3379                 3.2297
 Frc consts  --     4.1770                 1.2202                 3.2962
 IR Inten    --    15.9201                 1.9597                 1.2733

                    13                     14                     15
                     A                      A                      A
 Frequencies --  1414.1040              1434.3151              1516.6435
 Red. masses --     2.5296                 5.0929                 3.5341
 Frc consts  --     2.9803                 6.1731                 4.7895
 IR Inten    --     8.5986                 5.9672                14.6625

                    16                     17                     18
                     A                      A                      A
 Frequencies --  3256.3669              3286.8296              3651.2893
 Red. masses --     1.0972                 1.0983                 1.0813
 Frc consts  --     6.8548                 6.9907                 8.4934
 IR Inten    --     0.5489                 0.0642                74.9467

 - Thermochemistry -
 -------------------
 Temperature   298.150 Kelvin.  Pressure   1.00000 Atm.
 Atom     1 has atomic number  6 and mass  12.00000

 Molecular mass:    67.02962 amu.
 Principal axes and moments of inertia in atomic units:
                           1         2         3
     Eigenvalues --   166.88901 193.67883 360.56783
           X            0.98394  -0.17848  -0.00002
           Y            0.17848   0.98394  -0.00002
           Z            0.00002   0.00001   1.00000
 This molecule is an asymmetric top.
 Rotational symmetry number  1.
 Rotational temperatures (Kelvin)      0.51899     0.44720     0.24022
 Rotational constants (GHZ):          10.81402     9.31822     5.00528
 Zero-point vibrational energy     152765.3 (Joules/Mol)
                                   36.51178 (Kcal/Mol)
 Warning -- explicit consideration of   2 degrees of freedom as
           vibrations may cause significant error
 Vibrational temperatures:    653.41   821.47   971.27  1141.53  1178.40
          (Kelvin)           1230.82  1333.68  1533.43  1592.24  1658.98
                             1790.08  1893.63  2034.58  2063.66  2182.11
                             4685.18  4729.01  5253.38

 Zero-point correction=                           0.058185 (Hartree/Particle)
 Thermal correction to Energy=                    0.061959
 Thermal correction to Enthalpy=                  0.062904
 Thermal correction to Gibbs Free Energy=         0.031317
 Sum of electronic and zero-point Energies=           -225.492230
 Sum of electronic and thermal Energies=              -225.488456
 Sum of electronic and thermal Enthalpies=            -225.487512
 Sum of electronic and thermal Free Energies=         -225.519098

                     E (Thermal)             CV                S
                      KCal/Mol        Cal/Mol-Kelvin    Cal/Mol-Kelvin
 Total                   38.880             13.001             66.479
 Electronic               0.000              0.000              1.377
 Translational            0.889              2.981             38.526
 Rotational               0.889              2.981             23.970
 Vibrational             37.103              7.039              2.606
 Vibration     1          0.813              1.352              0.783
 Vibration     2          0.927              1.094              0.502

 Optimization completed.
    -- Stationary point found.
 Normal termination of Gaussian 09 at Tue Mar  6 10:02:21 2018.
