 Gaussian 09, Revision B.01,
 Gaussian 09:  EM64L-G09RevB.01 12-Aug-2010

 -------------------------------------------------
 #p Temperature=298.15 opt freq UB3LYP/aug-cc-pVDZ
 -------------------------------------------------

 ---------------------------------------
 Imidazole-2+-UB3LYP-aug-cc-pVDZ-Triplet
 ---------------------------------------
 Symbolic Z-matrix:
 Charge =  1 Multiplicity = 3

 SCF Done:  E(UB3LYP) =  -225.209816150     A.U. after   18 cycles
 SCF Done:  E(UB3LYP) =  -225.227816745     A.U. after   17 cycles
 SCF Done:  E(UB3LYP) =  -225.229039612     A.U. after   17 cycles
 SCF Done:  E(UB3LYP) =  -225.229209563     A.U. after   19 cycles
 SCF Done:  E(UB3LYP) =  -225.229203472     A.U. after   14 cycles
 SCF Done:  E(UB3LYP) =  -225.229231368     A.U. after   17 cycles
 SCF Done:  E(UB3LYP) =  -225.229234092     A.U. after   17 cycles
 Optimization completed.
    -- Stationary point found.
 Normal termination of Gaussian 09 at Fri Jan 21 00:30:06 2005.

 ----------------------------------------------------------------------
 #P Geom=AllCheck Guess=TCheck SCRF=Check GenChk UB3LYP/Aug-CC-pVDZ Fre
 q
 ----------------------------------------------------------------------

 Imidazole-2+-UB3LYP-aug-cc-pVDZ-Triplet
 ---------------------------------------
 Redundant internal coordinates taken from checkpoint file:
 Imidazole-2+-UB3LYP-aug-cc-pVDZ-Triplet.chk
 Charge =  1 Multiplicity = 3

                         Standard orientation:
 ---------------------------------------------------------------------
 Center     Atomic      Atomic             Coordinates (Angstroms)
 Number     Number       Type             X           Y           Z
 ---------------------------------------------------------------------
      1          6           0        0.015153   -1.160967   -0.000059
      2          6           0        0.598743    0.938864    0.000012
      3          1           0        1.207520    1.842352    0.000112
      4          7           0        1.105479   -0.303497   -0.000019
      5          1           0        2.087546   -0.573100    0.000194
      6          6           0       -0.856057    0.754831   -0.000125
      7          1           0       -1.615707    1.535398    0.000206
      8          7           0       -1.137821   -0.553792    0.000093
 ---------------------------------------------------------------------

 SCF Done:  E(UB3LYP) =  -225.229234092     A.U. after    1 cycles

 The electronic state is 3-A.
 Alpha  occ. eigenvalues --  -14.67050 -14.59397 -10.55487 -10.53141 -10.51035
 Alpha  occ. eigenvalues --   -1.30890  -1.16755  -1.01832  -0.89086  -0.87276
 Alpha  occ. eigenvalues --   -0.80944  -0.72010  -0.71212  -0.70349  -0.57890
 Alpha  occ. eigenvalues --   -0.57233  -0.52692  -0.52153
 Alpha virt. eigenvalues --   -0.27006  -0.22242  -0.18011  -0.14182  -0.12934
 Alpha virt. eigenvalues --   -0.11824  -0.11284  -0.09410  -0.08799  -0.06070
 Alpha virt. eigenvalues --   -0.05716  -0.05479  -0.05282  -0.04397  -0.02932

  Beta  occ. eigenvalues --  -14.66935 -14.59276 -10.53206 -10.52453 -10.50377
  Beta  occ. eigenvalues --   -1.29493  -1.16133  -0.98695  -0.88070  -0.85646
  Beta  occ. eigenvalues --   -0.78728  -0.70274  -0.69286  -0.68922  -0.56478
  Beta  occ. eigenvalues --   -0.54247
  Beta virt. eigenvalues --   -0.40670  -0.36286  -0.22057  -0.18293  -0.17888
  Beta virt. eigenvalues --   -0.13953  -0.12461  -0.11366  -0.10839  -0.09222
  Beta virt. eigenvalues --   -0.08065  -0.05700  -0.05262  -0.04989  -0.04789

 Mulliken atomic charges:
              1
     1  C    0.193343
     2  C    0.902635
     3  H   -0.294214
     4  N    0.013977
     5  H   -0.055915
     6  C    0.601509
     7  H   -0.264694
     8  N   -0.096642
 Sum of Mulliken atomic charges =   1.00000

 Dipole moment (field-independent basis, Debye):
    X=              3.4645    Y=              2.1816    Z=              0.0003  Tot=              4.0942
 Quadrupole moment (field-independent basis, Debye-Ang):
   XX=            -17.4764   YY=            -18.3413   ZZ=            -26.8734
   XY=             -3.1742   XZ=              0.0009   YZ=              0.0005

  Exact polarizability:  45.666  -0.972  45.220   0.000   0.000  24.612
 Approx polarizability:  72.805  -3.187  77.203   0.000   0.000  36.380

                     1                      2                      3
                     A                      A                      A
 Frequencies --   513.1217               648.4101               706.0301
 Red. masses --     2.3735                11.2622                 1.1293
 Frc consts  --     0.3682                 2.7898                 0.3317
 IR Inten    --     0.5213                21.5322               115.5896

                     4                      5                      6
                     A                      A                      A
 Frequencies --   795.7970               803.0872               868.1857
 Red. masses --     1.2094                 8.9112                 7.6407
 Frc consts  --     0.4513                 3.3862                 3.3932
 IR Inten    --     2.0003                18.8976                12.4789

                     7                      8                      9
                     A                      A                      A
 Frequencies --   908.0195               973.3572              1054.3758
 Red. masses --     1.6591                 2.2230                 2.3009
 Frc consts  --     0.8060                 1.2409                 1.5071
 IR Inten    --     1.7133                 2.5960                 1.2989

                    10                     11                     12
                     A                      A                      A
 Frequencies --  1148.6321              1242.3430              1278.4835
 Red. masses --     1.6603                 1.8591                 4.9876
 Frc consts  --     1.2906                 1.6905                 4.8032
 IR Inten    --    48.2262                46.3732                20.7214

                    13                     14                     15
                     A                      A                      A
 Frequencies --  1386.2906              1427.3050              1498.9115
 Red. masses --     3.4345                 1.9269                 3.6933
 Frc consts  --     3.8889                 2.3129                 4.8890
 IR Inten    --    50.1565                45.3824                63.0358

                    16                     17                     18
                     A                      A                      A
 Frequencies --  3236.8706              3247.7438              3558.4854
 Red. masses --     1.0976                 1.1035                 1.0845
 Frc consts  --     6.7755                 6.8578                 8.0914
 IR Inten    --    33.4261                25.6297               245.4993

 - Thermochemistry -
 -------------------
 Temperature   298.150 Kelvin.  Pressure   1.00000 Atm.
 Atom     1 has atomic number  6 and mass  12.00000

 Molecular mass:    67.02962 amu.
 Principal axes and moments of inertia in atomic units:
                           1         2         3
     Eigenvalues --   160.78775 203.37795 364.16569
           X            0.99326  -0.11588   0.00000
           Y            0.11588   0.99326   0.00001
           Z            0.00000  -0.00001   1.00000
 This molecule is an asymmetric top.
 Rotational symmetry number  1.
 Rotational temperatures (Kelvin)      0.53868     0.42588     0.23784
 Rotational constants (GHZ):          11.22437     8.87383     4.95582
 Zero-point vibrational energy     151300.4 (Joules/Mol)
                                   36.16166 (Kcal/Mol)
 Warning -- explicit consideration of   1 degrees of freedom as
           vibrations may cause significant error
 Vibrational temperatures:    738.27   932.92  1015.82  1144.97  1155.46
          (Kelvin)           1249.12  1306.44  1400.44  1517.01  1652.62
                             1787.45  1839.45  1994.56  2053.57  2156.60
                             4657.13  4672.77  5119.86

 Zero-point correction=                           0.057627 (Hartree/Particle)
 Thermal correction to Energy=                    0.061327
 Thermal correction to Enthalpy=                  0.062271
 Thermal correction to Gibbs Free Energy=         0.030414
 Sum of electronic and zero-point Energies=           -225.171607
 Sum of electronic and thermal Energies=              -225.167907
 Sum of electronic and thermal Enthalpies=            -225.166963
 Sum of electronic and thermal Free Energies=         -225.198820

                     E (Thermal)             CV                S
                      KCal/Mol        Cal/Mol-Kelvin    Cal/Mol-Kelvin
 Total                   38.483             12.859             67.050
 Electronic               0.000              0.000              2.183
 Translational            0.889              2.981             38.526
 Rotational               0.889              2.981             23.991
 Vibrational             36.706              6.897              2.350
 Vibration     1          0.868              1.221              0.626

 Optimization completed.
    -- Stationary point found.
 Normal termination of Gaussian 09 at Fri Jan 21 00:31:17 2005.
