 Gaussian 09, Revision B.01,
 Gaussian 09:  EM64L-G09RevB.01 12-Aug-2010

 -------------------------------------------------
 #p Temperature=298.15 opt freq UB3LYP/aug-cc-pVDZ
 -------------------------------------------------

 ---------------------------------------
 Imidazole-4+-UB3LYP-aug-cc-pVDZ-Singlet
 ---------------------------------------
 Symbolic Z-matrix:
 Charge =  1 Multiplicity = 1

 SCF Done:  E(UB3LYP) =  -225.165514389     A.U. after   19 cycles
 SCF Done:  E(UB3LYP) =  -225.207042367     A.U. after   18 cycles
 SCF Done:  E(UB3LYP) =  -225.216506860     A.U. after   14 cycles
 SCF Done:  E(UB3LYP) =  -225.217634086     A.U. after   15 cycles
 SCF Done:  E(UB3LYP) =  -225.217991619     A.U. after   13 cycles
 SCF Done:  E(UB3LYP) =  -225.217905438     A.U. after   15 cycles
 SCF Done:  E(UB3LYP) =  -225.218059590     A.U. after   13 cycles
 SCF Done:  E(UB3LYP) =  -225.218062679     A.U. after   17 cycles
 Optimization completed.
    -- Stationary point found.
 Normal termination of Gaussian 09 at Tue Mar  6 05:26:48 2018.

 ----------------------------------------------------------------------
 #P Geom=AllCheck Guess=TCheck SCRF=Check GenChk UB3LYP/Aug-CC-pVDZ Fre
 q
 ----------------------------------------------------------------------

 Imidazole-4+-UB3LYP-aug-cc-pVDZ-Singlet
 ---------------------------------------
 Redundant internal coordinates taken from checkpoint file:
 Imidazole-4+-UB3LYP-aug-cc-pVDZ-Singlet.chk
 Charge =  1 Multiplicity = 1

                         Standard orientation:
 ---------------------------------------------------------------------
 Center     Atomic      Atomic             Coordinates (Angstroms)
 Number     Number       Type             X           Y           Z
 ---------------------------------------------------------------------
      1          6           0       -0.041988   -1.089749   -0.000987
      2          6           0        0.831135    0.702764    0.000165
      3          1           0        1.578659    1.488813   -0.000169
      4          7           0       -0.523422    0.880549   -0.000150
      5          1           0       -1.003420    1.780409   -0.001195
      6          6           0       -1.185433   -0.358857    0.000394
      7          1           0       -2.252109   -0.535934    0.001561
      8          7           0        1.102648   -0.631727    0.000488
 ---------------------------------------------------------------------

 SCF Done:  E(UB3LYP) =  -225.218062679     A.U. after    1 cycles

 The electronic state is 1-A.
 Alpha  occ. eigenvalues --  -14.65828 -14.62768 -10.55433 -10.52679 -10.50107
 Alpha  occ. eigenvalues --   -1.31698  -1.17061  -1.01596  -0.90408  -0.83670
 Alpha  occ. eigenvalues --   -0.80072  -0.72158  -0.71316  -0.69373  -0.60462
 Alpha  occ. eigenvalues --   -0.57309  -0.49568
 Alpha virt. eigenvalues --   -0.40609  -0.24835  -0.19301  -0.17320  -0.13394
 Alpha virt. eigenvalues --   -0.12665  -0.11845  -0.10672  -0.09479  -0.08724
 Alpha virt. eigenvalues --   -0.06524  -0.06000  -0.05292  -0.04240  -0.03676

  Beta  occ. eigenvalues --  -14.65828 -14.62768 -10.55433 -10.52679 -10.50107
  Beta  occ. eigenvalues --   -1.31698  -1.17061  -1.01596  -0.90408  -0.83670
  Beta  occ. eigenvalues --   -0.80072  -0.72158  -0.71316  -0.69373  -0.60462
  Beta  occ. eigenvalues --   -0.57309  -0.49568
  Beta virt. eigenvalues --   -0.40609  -0.24835  -0.19301  -0.17320  -0.13394
  Beta virt. eigenvalues --   -0.12665  -0.11845  -0.10672  -0.09479  -0.08724
  Beta virt. eigenvalues --   -0.06524  -0.06000  -0.05292  -0.04240  -0.03676

 Mulliken atomic charges:
              1
     1  C    0.006942
     2  C    0.640544
     3  H   -0.174568
     4  N   -0.026745
     5  H   -0.088550
     6  C    0.958898
     7  H   -0.248591
     8  N   -0.067930
 Sum of Mulliken atomic charges =   1.00000

 Dipole moment (field-independent basis, Debye):
    X=             -2.1370    Y=              1.3473    Z=              0.0003  Tot=              2.5262
 Quadrupole moment (field-independent basis, Debye-Ang):
   XX=            -17.8918   YY=            -15.1198   ZZ=            -28.1616
   XY=              1.6028   XZ=             -0.0035   YZ=             -0.0072

  Exact polarizability:  49.812   2.911  42.023  -0.009   0.024  25.704
 Approx polarizability:  95.100   5.755  75.064  -0.003   0.042  35.842

                     1                      2                      3
                     A                      A                      A
 Frequencies --   246.7570               593.5073               607.4070
 Red. masses --     5.6149                 4.4287                10.5955
 Frc consts  --     0.2014                 0.9191                 2.3032
 IR Inten    --     0.3512                41.8276                63.2272

                     4                      5                      6
                     A                      A                      A
 Frequencies --   691.6966               716.9328               787.5130
 Red. masses --     1.3157                 1.2733                 1.1471
 Frc consts  --     0.3709                 0.3856                 0.4191
 IR Inten    --    19.6357               100.3683                 7.8734

                     7                      8                      9
                     A                      A                      A
 Frequencies --   877.1319              1011.3036              1126.2647
 Red. masses --     7.7911                 1.6176                 1.4591
 Frc consts  --     3.5317                 0.9748                 1.0905
 IR Inten    --     0.7977                29.1252                 9.4986

                    10                     11                     12
                     A                      A                      A
 Frequencies --  1211.4925              1236.8987              1342.0336
 Red. masses --     1.7037                 3.7833                 6.9682
 Frc consts  --     1.4733                 3.4103                 7.3943
 IR Inten    --     4.0448                35.7432                18.8930

                    13                     14                     15
                     A                      A                      A
 Frequencies --  1357.4017              1499.7372              1806.9347
 Red. masses --     2.0522                 2.2555                 9.9755
 Frc consts  --     2.2279                 2.9890                19.1897
 IR Inten    --    16.8980                47.6722                50.4326

                    16                     17                     18
                     A                      A                      A
 Frequencies --  3278.5791              3320.8134              3538.5833
 Red. masses --     1.1017                 1.1062                 1.0839
 Frc consts  --     6.9773                 7.1877                 7.9961
 IR Inten    --    54.9917                76.9287               185.5430

 - Thermochemistry -
 -------------------
 Temperature   298.150 Kelvin.  Pressure   1.00000 Atm.
 Atom     1 has atomic number  6 and mass  12.00000

 Molecular mass:    67.02962 amu.
 Principal axes and moments of inertia in atomic units:
                           1         2         3
     Eigenvalues --   155.40841 196.01613 351.42439
           X            0.98859   0.15061  -0.00005
           Y           -0.15061   0.98859  -0.00007
           Z            0.00004   0.00008   1.00000
 This molecule is an asymmetric top.
 Rotational symmetry number  1.
 Rotational temperatures (Kelvin)      0.55733     0.44187     0.24647
 Rotational constants (GHZ):          11.61289     9.20711     5.13550
 Zero-point vibrational energy     151034.4 (Joules/Mol)
                                   36.09810 (Kcal/Mol)
 Warning -- explicit consideration of   3 degrees of freedom as
           vibrations may cause significant error
 Vibrational temperatures:    355.03   853.92   873.92   995.20  1031.51
          (Kelvin)           1133.05  1262.00  1455.04  1620.44  1743.07
                             1779.62  1930.88  1953.00  2157.78  2599.77
                             4717.14  4777.90  5091.23

 Zero-point correction=                           0.057526 (Hartree/Particle)
 Thermal correction to Energy=                    0.061645
 Thermal correction to Enthalpy=                  0.062589
 Thermal correction to Gibbs Free Energy=         0.031080
 Sum of electronic and zero-point Energies=           -225.160537
 Sum of electronic and thermal Energies=              -225.156418
 Sum of electronic and thermal Enthalpies=            -225.155474
 Sum of electronic and thermal Free Energies=         -225.186982

                     E (Thermal)             CV                S
                      KCal/Mol        Cal/Mol-Kelvin    Cal/Mol-Kelvin
 Total                   38.683             13.991             66.316
 Electronic               0.000              0.000              0.000
 Translational            0.889              2.981             38.526
 Rotational               0.889              2.981             23.886
 Vibrational             36.905              8.029              3.905
 Vibration     1          0.661              1.768              1.754
 Vibration     2          0.951              1.046              0.461
 Vibration     3          0.966              1.016              0.437

 Normal termination of Gaussian 09 at Tue Mar  6 05:27:57 2018.
