 Gaussian 09, Revision B.01,
 Gaussian 09:  EM64L-G09RevB.01 12-Aug-2010

 -------------------------------------------------
 #p Temperature=298.15 opt freq UB3LYP/aug-cc-pVDZ
 -------------------------------------------------

 ---------------------------------------
 Imidazole-4+-UB3LYP-aug-cc-pVDZ-Triplet
 ---------------------------------------
 Symbolic Z-matrix:
 Charge =  1 Multiplicity = 3

 SCF Done:  E(UB3LYP) =  -225.209188739     A.U. after   16 cycles
 SCF Done:  E(UB3LYP) =  -225.231133018     A.U. after   16 cycles
 SCF Done:  E(UB3LYP) =  -225.232854932     A.U. after   15 cycles
 SCF Done:  E(UB3LYP) =  -225.232990935     A.U. after   13 cycles
 SCF Done:  E(UB3LYP) =  -225.232970425     A.U. after   12 cycles
 SCF Done:  E(UB3LYP) =  -225.233000165     A.U. after   16 cycles
 Optimization completed.
    -- Stationary point found.
 Normal termination of Gaussian 09 at Fri Jan 21 00:53:36 2005.

 ----------------------------------------------------------------------
 #P Geom=AllCheck Guess=TCheck SCRF=Check GenChk UB3LYP/Aug-CC-pVDZ Fre
 q
 ----------------------------------------------------------------------

 Imidazole-4+-UB3LYP-aug-cc-pVDZ-Triplet
 ---------------------------------------
 Redundant internal coordinates taken from checkpoint file:
 Imidazole-4+-UB3LYP-aug-cc-pVDZ-Triplet.chk
 Charge =  1 Multiplicity = 3

                         Standard orientation:
 ---------------------------------------------------------------------
 Center     Atomic      Atomic             Coordinates (Angstroms)
 Number     Number       Type             X           Y           Z
 ---------------------------------------------------------------------
      1          6           0       -0.253609   -1.202791    0.000261
      2          6           0       -0.640121    0.869290    0.000383
      3          1           0       -1.156064    1.827765    0.000251
      4          7           0        0.748846    0.757180   -0.000215
      5          1           0        1.409701    1.533471   -0.000150
      6          6           0        1.056680   -0.549432    0.000030
      7          1           0        2.066870   -0.952239    0.000027
      8          7           0       -1.220019   -0.344522   -0.000381
 ---------------------------------------------------------------------

 SCF Done:  E(UB3LYP) =  -225.233000165     A.U. after    1 cycles

 The electronic state is 3-A.
 Alpha  occ. eigenvalues --  -14.66788 -14.59202 -10.54654 -10.53568 -10.51691
 Alpha  occ. eigenvalues --   -1.30725  -1.16627  -1.02170  -0.89705  -0.85537
 Alpha  occ. eigenvalues --   -0.82139  -0.71901  -0.71862  -0.70742  -0.58188
 Alpha  occ. eigenvalues --   -0.57301  -0.52018  -0.50696
 Alpha virt. eigenvalues --   -0.27495  -0.21668  -0.18352  -0.13852  -0.13372
 Alpha virt. eigenvalues --   -0.12774  -0.11365  -0.09548  -0.08400  -0.06483
 Alpha virt. eigenvalues --   -0.05972  -0.05188  -0.04761  -0.04243  -0.03601

  Beta  occ. eigenvalues --  -14.66905 -14.59123 -10.53770 -10.52643 -10.49653
  Beta  occ. eigenvalues --   -1.29623  -1.16119  -0.99121  -0.88385  -0.83959
  Beta  occ. eigenvalues --   -0.80302  -0.70534  -0.69802  -0.69049  -0.56572
  Beta  occ. eigenvalues --   -0.54841
  Beta virt. eigenvalues --   -0.40375  -0.34163  -0.23334  -0.18271  -0.17102
  Beta virt. eigenvalues --   -0.13497  -0.13059  -0.12187  -0.10930  -0.09240
  Beta virt. eigenvalues --   -0.07949  -0.05859  -0.05550  -0.04937  -0.04446

 Mulliken atomic charges:
              1
     1  C    0.004080
     2  C    0.717368
     3  H   -0.147751
     4  N    0.053151
     5  H   -0.080675
     6  C    0.804860
     7  H   -0.207898
     8  N   -0.143136
 Sum of Mulliken atomic charges =   1.00000

 Dipole moment (field-independent basis, Debye):
    X=              3.6684    Y=              2.4138    Z=              0.0010  Tot=              4.3913
 Quadrupole moment (field-independent basis, Debye-Ang):
   XX=            -19.3003   YY=            -16.7818   ZZ=            -26.8725
   XY=             -2.0135   XZ=             -0.0015   YZ=              0.0004

  Exact polarizability:  45.740  -3.117  45.328   0.000   0.001  24.646
 Approx polarizability:  73.577  -6.834  76.762   0.003  -0.001  36.492

                     1                      2                      3
                     A                      A                      A
 Frequencies --   507.8888               563.5845               731.0159
 Red. masses --     2.4703                 3.1760                 1.1886
 Frc consts  --     0.3754                 0.5944                 0.3742
 IR Inten    --    27.3446                 3.6428               103.3714

                     4                      5                      6
                     A                      A                      A
 Frequencies --   782.1035               853.5670               880.0585
 Red. masses --    10.7279                 1.5069                 1.6601
 Frc consts  --     3.8663                 0.6469                 0.7576
 IR Inten    --    28.0835                 0.3230                 2.1467

                     7                      8                      9
                     A                      A                      A
 Frequencies --   899.9360               980.1869              1056.3030
 Red. masses --     6.5556                 2.2532                 2.2661
 Frc consts  --     3.1281                 1.2754                 1.4897
 IR Inten    --     2.2884                19.7221                 0.5453

                    10                     11                     12
                     A                      A                      A
 Frequencies --  1142.7201              1198.5327              1264.6848
 Red. masses --     1.9065                 5.4947                 1.4558
 Frc consts  --     1.4668                 4.6504                 1.3719
 IR Inten    --    42.5067                17.8836                 2.0176

                    13                     14                     15
                     A                      A                      A
 Frequencies --  1416.1711              1459.3922              1516.8961
 Red. masses --     2.1698                 3.1182                 4.0600
 Frc consts  --     2.5639                 3.9128                 5.5041
 IR Inten    --    12.1944               148.9048                 9.6092

                    16                     17                     18
                     A                      A                      A
 Frequencies --  3247.6762              3263.2729              3541.1051
 Red. masses --     1.1000                 1.1023                 1.0845
 Frc consts  --     6.8355                 6.9158                 8.0122
 IR Inten    --    41.5981                34.3979               204.8516

 - Thermochemistry -
 -------------------
 Temperature   298.150 Kelvin.  Pressure   1.00000 Atm.
 Atom     1 has atomic number  6 and mass  12.00000

 Molecular mass:    67.02962 amu.
 Principal axes and moments of inertia in atomic units:
                           1         2         3
     Eigenvalues --   164.09981 198.95560 363.05538
           X            0.98169  -0.19050  -0.00001
           Y            0.19050   0.98169   0.00000
           Z            0.00001  -0.00001   1.00000
 This molecule is an asymmetric top.
 Rotational symmetry number  1.
 Rotational temperatures (Kelvin)      0.52781     0.43534     0.23857
 Rotational constants (GHZ):          10.99783     9.07108     4.97098
 Zero-point vibrational energy     151358.1 (Joules/Mol)
                                   36.17545 (Kcal/Mol)
 Warning -- explicit consideration of   2 degrees of freedom as
           vibrations may cause significant error
 Vibrational temperatures:    730.74   810.87  1051.77  1125.27  1228.09
          (Kelvin)           1266.21  1294.81  1410.27  1519.78  1644.12
                             1724.42  1819.60  2037.55  2099.74  2182.47
                             4672.68  4695.12  5094.85

 Zero-point correction=                           0.057649 (Hartree/Particle)
 Thermal correction to Energy=                    0.061380
 Thermal correction to Enthalpy=                  0.062324
 Thermal correction to Gibbs Free Energy=         0.030421
 Sum of electronic and zero-point Energies=           -225.175351
 Sum of electronic and thermal Energies=              -225.171620
 Sum of electronic and thermal Enthalpies=            -225.170676
 Sum of electronic and thermal Free Energies=         -225.202580

                     E (Thermal)             CV                S
                      KCal/Mol        Cal/Mol-Kelvin    Cal/Mol-Kelvin
 Total                   38.516             12.944             67.147
 Electronic               0.000              0.000              2.183
 Translational            0.889              2.981             38.526
 Rotational               0.889              2.981             23.987
 Vibrational             36.739              6.982              2.451
 Vibration     1          0.863              1.233              0.639
 Vibration     2          0.919              1.110              0.517

 Optimization completed.
    -- Stationary point found.
 Normal termination of Gaussian 09 at Fri Jan 21 00:54:46 2005.
