 Gaussian 09, Revision B.01,
 Gaussian 09:  EM64L-G09RevB.01 12-Aug-2010

 -------------------------------------------------
 #p Temperature=298.15 opt freq UB3LYP/aug-cc-pVDZ
 -------------------------------------------------

 ------------------------------------------
 Imidazole-5-N2+-UB3LYP-aug-cc-pVDZ-Singlet
 ------------------------------------------
 Symbolic Z-matrix:
 Charge =  1 Multiplicity = 1

 SCF Done:  E(UB3LYP) =  -334.817049878     A.U. after   16 cycles
 SCF Done:  E(UB3LYP) =  -334.837118496     A.U. after   13 cycles
 SCF Done:  E(UB3LYP) =  -334.837738998     A.U. after   15 cycles
 SCF Done:  E(UB3LYP) =  -334.837422643     A.U. after   16 cycles
 SCF Done:  E(UB3LYP) =  -334.838558242     A.U. after   15 cycles
 SCF Done:  E(UB3LYP) =  -334.838889545     A.U. after   11 cycles
 SCF Done:  E(UB3LYP) =  -334.838894096     A.U. after   17 cycles
 SCF Done:  E(UB3LYP) =  -334.838893647     A.U. after   10 cycles
 SCF Done:  E(UB3LYP) =  -334.838894828     A.U. after   17 cycles
 Optimization completed.
    -- Stationary point found.
 Normal termination of Gaussian 09 at Tue Mar  6 05:35:35 2018.

 ----------------------------------------------------------------------
 #P Geom=AllCheck Guess=TCheck SCRF=Check GenChk UB3LYP/Aug-CC-pVDZ Fre
 q
 ----------------------------------------------------------------------

 Imidazole-5-N2+-UB3LYP-aug-cc-pVDZ-Singlet
 ------------------------------------------
 Redundant internal coordinates taken from checkpoint file:
 Imidazole-5-N2+-UB3LYP-aug-cc-pVDZ-Singlet.chk
 Charge =  1 Multiplicity = 1

                         Standard orientation:
 ---------------------------------------------------------------------
 Center     Atomic      Atomic             Coordinates (Angstroms)
 Number     Number       Type             X           Y           Z
 ---------------------------------------------------------------------
      1          7           0        1.656833   -0.022171   -0.000011
      2          7           0        2.779174   -0.006040   -0.000037
      3          6           0        0.319451    0.037662    0.000074
      4          6           0       -0.528331    1.166542    0.000092
      5          1           0       -0.239798    2.214790    0.000175
      6          6           0       -1.764331   -0.595828    0.000014
      7          1           0       -2.636731   -1.243577    0.000264
      8          7           0       -0.504553   -1.080111   -0.000059
      9          1           0       -0.225370   -2.057038    0.000197
     10          7           0       -1.797002    0.741975   -0.000137
 ---------------------------------------------------------------------

 SCF Done:  E(UB3LYP) =  -334.838894828     A.U. after    1 cycles

 The electronic state is 1-A.
 Alpha  occ. eigenvalues --  -14.74276 -14.70091 -14.63358 -14.54654 -10.51968
 Alpha  occ. eigenvalues --  -10.48460 -10.46139  -1.39115  -1.26610  -1.12670
 Alpha  occ. eigenvalues --   -1.09057  -0.93066  -0.85642  -0.83753  -0.75098
 Alpha  occ. eigenvalues --   -0.74491  -0.73198  -0.70355  -0.67300  -0.66267
 Alpha  occ. eigenvalues --   -0.64384  -0.52412  -0.49493  -0.48452
 Alpha virt. eigenvalues --   -0.30835  -0.30817  -0.19152  -0.17331  -0.15250
 Alpha virt. eigenvalues --   -0.13814  -0.11949  -0.11177  -0.10457  -0.09849
 Alpha virt. eigenvalues --   -0.08521  -0.06040  -0.05718  -0.04977  -0.04918

  Beta  occ. eigenvalues --  -14.74276 -14.70091 -14.63358 -14.54654 -10.51968
  Beta  occ. eigenvalues --  -10.48460 -10.46139  -1.39115  -1.26610  -1.12670
  Beta  occ. eigenvalues --   -1.09057  -0.93066  -0.85642  -0.83753  -0.75098
  Beta  occ. eigenvalues --   -0.74491  -0.73198  -0.70355  -0.67300  -0.66267
  Beta  occ. eigenvalues --   -0.64384  -0.52412  -0.49493  -0.48452
  Beta virt. eigenvalues --   -0.30835  -0.30817  -0.19152  -0.17331  -0.15250
  Beta virt. eigenvalues --   -0.13814  -0.11949  -0.11177  -0.10457  -0.09849
  Beta virt. eigenvalues --   -0.08521  -0.06040  -0.05718  -0.04977  -0.04918

 Mulliken atomic charges:
              1
     1  N    0.512851
     2  N   -0.449052
     3  C    0.645826
     4  C    0.579951
     5  H   -0.413949
     6  C    0.758291
     7  H   -0.253469
     8  N    0.052684
     9  H   -0.132212
    10  N   -0.300921
 Sum of Mulliken atomic charges =   1.00000

 Dipole moment (field-independent basis, Debye):
    X=              1.5892    Y=             -2.6551    Z=              0.0009  Tot=              3.0944
 Quadrupole moment (field-independent basis, Debye-Ang):
   XX=            -27.1606   YY=            -25.1722   ZZ=            -37.8138
   XY=              5.5860   XZ=             -0.0012   YZ=             -0.0006

  Exact polarizability: 101.906  -0.828  53.338   0.000   0.000  32.126
 Approx polarizability: 223.809  -9.798  88.150   0.000   0.001  48.465

                     1                      2                      3
                     A                      A                      A
 Frequencies --   161.8273               190.4682               489.4257
 Red. masses --     7.6772                 7.1756                 8.5704
 Frc consts  --     0.1185                 0.1534                 1.2095
 IR Inten    --     1.6043                 4.8346                 0.6796

                     4                      5                      6
                     A                      A                      A
 Frequencies --   533.7742               549.2341               588.3785
 Red. masses --     8.4820                 2.6363                 9.2821
 Frc consts  --     1.4238                 0.4685                 1.8933
 IR Inten    --     0.9869                44.6392                 2.0151

                     7                      8                      9
                     A                      A                      A
 Frequencies --   609.0124               641.9267               900.6145
 Red. masses --     2.0236                 1.8463                 1.4252
 Frc consts  --     0.4422                 0.4482                 0.6811
 IR Inten    --    81.9348                 2.4047                18.8338

                    10                     11                     12
                     A                      A                      A
 Frequencies --   906.3517               934.6692               997.4485
 Red. masses --     6.4955                 1.4588                 4.2876
 Frc consts  --     3.1438                 0.7509                 2.5133
 IR Inten    --     6.2602                 0.0426                30.6580

                    13                     14                     15
                     A                      A                      A
 Frequencies --  1122.2344              1171.1892              1263.5231
 Red. masses --     1.6699                 1.5343                 1.5292
 Frc consts  --     1.2391                 1.2400                 1.4384
 IR Inten    --    58.9540                32.3751                33.6789

                    16                     17                     18
                     A                      A                      A
 Frequencies --  1351.0473              1356.3407              1413.5865
 Red. masses --     6.5647                 4.3979                 4.9341
 Frc consts  --     7.0600                 4.7668                 5.8090
 IR Inten    --   106.5383                81.5041               105.2169

                    19                     20                     21
                     A                      A                      A
 Frequencies --  1474.1924              1522.8322              2287.6884
 Red. masses --     3.3753                 2.9380                13.9448
 Frc consts  --     4.3219                 4.0143                42.9988
 IR Inten    --    18.7501                37.7453               367.6246

                    22                     23                     24
                     A                      A                      A
 Frequencies --  3253.0314              3260.4558              3580.5775
 Red. masses --     1.1007                 1.1029                 1.0845
 Frc consts  --     6.8628                 6.9080                 8.1921
 IR Inten    --    21.6175                24.9049               175.0312

 - Thermochemistry -
 -------------------
 Temperature   298.150 Kelvin.  Pressure   1.00000 Atm.
 Atom     1 has atomic number  7 and mass  14.00307

 Molecular mass:    95.03577 amu.
 Principal axes and moments of inertia in atomic units:
                           1         2         3
     Eigenvalues --   197.69276 872.696801070.38955
           X            0.99985   0.01706   0.00000
           Y           -0.01706   0.99985  -0.00001
           Z            0.00000   0.00001   1.00000
 This molecule is an asymmetric top.
 Rotational symmetry number  1.
 Rotational temperatures (Kelvin)      0.43812     0.09925     0.08092
 Rotational constants (GHZ):           9.12902     2.06800     1.68606
 Zero-point vibrational energy     182788.4 (Joules/Mol)
                                   43.68747 (Kcal/Mol)
 Warning -- explicit consideration of   7 degrees of freedom as
           vibrations may cause significant error
 Vibrational temperatures:    232.83   274.04   704.17   767.98   790.22
          (Kelvin)            846.54   876.23   923.59  1295.78  1304.04
                             1344.78  1435.10  1614.64  1685.08  1817.93
                             1943.85  1951.47  2033.83  2121.03  2191.01
                             3291.47  4680.38  4691.06  5151.65

 Zero-point correction=                           0.069620 (Hartree/Particle)
 Thermal correction to Energy=                    0.075015
 Thermal correction to Enthalpy=                  0.075959
 Thermal correction to Gibbs Free Energy=         0.040399
 Sum of electronic and zero-point Energies=           -334.769274
 Sum of electronic and thermal Energies=              -334.763880
 Sum of electronic and thermal Enthalpies=            -334.762936
 Sum of electronic and thermal Free Energies=         -334.798495

                     E (Thermal)             CV                S
                      KCal/Mol        Cal/Mol-Kelvin    Cal/Mol-Kelvin
 Total                   47.073             19.289             74.842
 Electronic               0.000              0.000              0.000
 Translational            0.889              2.981             39.566
 Rotational               0.889              2.981             26.715
 Vibrational             45.295             13.328              8.560
 Vibration     1          0.622              1.889              2.528
 Vibration     2          0.634              1.853              2.223
 Vibration     3          0.845              1.273              0.685
 Vibration     4          0.889              1.175              0.579
 Vibration     5          0.904              1.141              0.546
 Vibration     6          0.946              1.057              0.470
 Vibration     7          0.968              1.013              0.434

 Optimization completed.
    -- Stationary point found.
 Normal termination of Gaussian 09 at Tue Mar  6 05:39:02 2018.
