 Gaussian 09, Revision B.01,
 Gaussian 09:  EM64L-G09RevB.01 12-Aug-2010

 -------------------------------------------------
 #p Temperature=298.15 opt freq UB3LYP/aug-cc-pVDZ
 -------------------------------------------------

 ----------------------------------------
 Imidazole-2-N2-UB3LYP-aug-cc-pVDZ-Duplet
 ----------------------------------------
 Symbolic Z-matrix:
 Charge =  0 Multiplicity = 2

 SCF Done:  E(UB3LYP) =  -335.055850895     A.U. after   23 cycles
 SCF Done:  E(UB3LYP) =  -335.073407272     A.U. after   20 cycles
 SCF Done:  E(UB3LYP) =  -335.074477689     A.U. after   23 cycles
 SCF Done:  E(UB3LYP) =  -335.074553206     A.U. after   23 cycles
 SCF Done:  E(UB3LYP) =  -335.074546940     A.U. after   19 cycles
 SCF Done:  E(UB3LYP) =  -335.074589137     A.U. after   18 cycles
 SCF Done:  E(UB3LYP) =  -335.074589210     A.U. after   27 cycles
 SCF Done:  E(UB3LYP) =  -335.074578437     A.U. after   27 cycles
 SCF Done:  E(UB3LYP) =  -335.075446658     A.U. after   19 cycles
 SCF Done:  E(UB3LYP) =  -335.077792627     A.U. after   18 cycles
 SCF Done:  E(UB3LYP) =  -335.102472495     A.U. after   19 cycles
 SCF Done:  E(UB3LYP) =  -335.103450471     A.U. after   19 cycles
 SCF Done:  E(UB3LYP) =  -335.103325620     A.U. after   18 cycles
 SCF Done:  E(UB3LYP) =  -335.103687755     A.U. after   15 cycles
 SCF Done:  E(UB3LYP) =  -335.103766021     A.U. after   14 cycles
 SCF Done:  E(UB3LYP) =  -335.103809854     A.U. after   13 cycles
 SCF Done:  E(UB3LYP) =  -335.103818085     A.U. after   13 cycles
 SCF Done:  E(UB3LYP) =  -335.103819589     A.U. after   22 cycles
 SCF Done:  E(UB3LYP) =  -335.103820200     A.U. after   12 cycles
 Optimization completed.
    -- Stationary point found.
 Normal termination of Gaussian 09 at Tue Mar  6 08:45:46 2018.

 ----------------------------------------------------------------------
 #P Geom=AllCheck Guess=TCheck SCRF=Check GenChk UB3LYP/Aug-CC-pVDZ Fre
 q
 ----------------------------------------------------------------------

 Imidazole-2-N2-UB3LYP-aug-cc-pVDZ-Duplet
 ----------------------------------------
 Redundant internal coordinates taken from checkpoint file:
 Imidazole-2-N2-UB3LYP-aug-cc-pVDZ-Duplet.chk
 Charge =  0 Multiplicity = 2

                         Standard orientation:
 ---------------------------------------------------------------------
 Center     Atomic      Atomic             Coordinates (Angstroms)
 Number     Number       Type             X           Y           Z
 ---------------------------------------------------------------------
      1          7           0        1.693074   -0.522151    0.000012
      2          7           0        2.525692    0.329297    0.000160
      3          6           0        0.300118   -0.264172   -0.000217
      4          6           0       -1.602835    0.840665    0.000108
      5          1           0       -2.282706    1.684877    0.000041
      6          7           0       -0.238761    0.995354   -0.000163
      7          1           0        0.288010    1.858698   -0.000007
      8          6           0       -1.817744   -0.525963    0.000125
      9          1           0       -2.767656   -1.049916    0.000218
     10          7           0       -0.624989   -1.202048   -0.000058
 ---------------------------------------------------------------------

 SCF Done:  E(UB3LYP) =  -335.103820200     A.U. after    1 cycles

 The electronic state is 2-A.
 Alpha  occ. eigenvalues --  -14.43512 -14.42372 -14.41157 -14.35013 -10.30411
 Alpha  occ. eigenvalues --  -10.25208 -10.23101  -1.09698  -1.04636  -0.91273
 Alpha  occ. eigenvalues --   -0.80572  -0.70689  -0.64004  -0.63065  -0.53592
 Alpha  occ. eigenvalues --   -0.49070  -0.48741  -0.47127  -0.45756  -0.42630
 Alpha  occ. eigenvalues --   -0.41839  -0.32098  -0.30955  -0.26426  -0.22705
 Alpha virt. eigenvalues --   -0.08781  -0.02243   0.00154   0.00806   0.01481
 Alpha virt. eigenvalues --    0.03397   0.03622   0.04809   0.05056   0.05791
 Alpha virt. eigenvalues --    0.07755   0.07778   0.08634   0.08897   0.09012

  Beta  occ. eigenvalues --  -14.43111 -14.42350 -14.39575 -14.35058 -10.30050
  Beta  occ. eigenvalues --  -10.25237 -10.23092  -1.08332  -1.04044  -0.91270
  Beta  occ. eigenvalues --   -0.79531  -0.69554  -0.63785  -0.62812  -0.52712
  Beta  occ. eigenvalues --   -0.48764  -0.47682  -0.45329  -0.44277  -0.42005
  Beta  occ. eigenvalues --   -0.38350  -0.32205  -0.30952  -0.26107
  Beta virt. eigenvalues --   -0.08357  -0.07679  -0.02112   0.00193   0.00819
  Beta virt. eigenvalues --    0.01526   0.03396   0.03693   0.05138   0.05277
  Beta virt. eigenvalues --    0.05836   0.07779   0.07852   0.08627   0.09000

 Mulliken atomic charges:
              1
     1  N    0.188646
     2  N   -0.598757
     3  C    0.247200
     4  C    0.941001
     5  H   -0.497111
     6  N    0.035525
     7  H   -0.174870
     8  C    0.588425
     9  H   -0.475469
    10  N   -0.254589
 Sum of Mulliken atomic charges =   0.00000

 Dipole moment (field-independent basis, Debye):
    X=             -2.6971    Y=              3.5326    Z=             -0.0001  Tot=              4.4445
 Quadrupole moment (field-independent basis, Debye-Ang):
   XX=            -41.9056   YY=            -39.0609   ZZ=            -41.0401
   XY=             -1.4011   XZ=             -0.0010   YZ=             -0.0001

  Exact polarizability:  97.692   2.116  64.190  -0.002   0.001  39.205
 Approx polarizability: 158.352   9.337 111.146  -0.005   0.002  58.563

                     1                      2                      3
                     A                      A                      A
 Frequencies --   145.9242               242.5675               308.7789
 Red. masses --     7.6151                 7.0685                 7.8253
 Frc consts  --     0.0955                 0.2450                 0.4396
 IR Inten    --     1.5239                 9.1641                 1.1867

                     4                      5                      6
                     A                      A                      A
 Frequencies --   523.9439               591.9391               651.2432
 Red. masses --     9.5810                 1.5503                 2.0696
 Frc consts  --     1.5496                 0.3201                 0.5172
 IR Inten    --     1.2593                70.1818                18.9161

                     7                      8                      9
                     A                      A                      A
 Frequencies --   672.4141               695.6826               764.1173
 Red. masses --     9.8300                 5.8646                 1.2582
 Frc consts  --     2.6186                 1.6723                 0.4328
 IR Inten    --    21.4707                 1.2307                47.8623

                    10                     11                     12
                     A                      A                      A
 Frequencies --   875.2168               922.4743               985.8638
 Red. masses --     1.3681                 6.6641                 3.0733
 Frc consts  --     0.6175                 3.3412                 1.7599
 IR Inten    --     7.8793                 6.4063                 1.2296

                    13                     14                     15
                     A                      A                      A
 Frequencies --  1088.8171              1120.2151              1185.6820
 Red. masses --     1.4429                 1.7831                 2.1826
 Frc consts  --     1.0078                 1.3184                 1.8079
 IR Inten    --    45.7499                 3.5661                14.0418

                    16                     17                     18
                     A                      A                      A
 Frequencies --  1267.5935              1379.9577              1430.7492
 Red. masses --     4.1511                 3.2677                 3.6875
 Frc consts  --     3.9298                 3.6663                 4.4475
 IR Inten    --    19.9148                 9.3658                 7.6269

                    19                     20                     21
                     A                      A                      A
 Frequencies --  1480.4713              1547.7236              1815.5259
 Red. masses --     4.3164                 3.7208                13.9505
 Frc consts  --     5.5741                 5.2514                27.0922
 IR Inten    --    41.1445                10.1553                51.3749

                    22                     23                     24
                     A                      A                      A
 Frequencies --  3256.4369              3279.8319              3630.1345
 Red. masses --     1.0924                 1.1056                 1.0819
 Frc consts  --     6.8254                 7.0071                 8.3998
 IR Inten    --     2.6026                 0.2568                79.6927

 - Thermochemistry -
 -------------------
 Temperature   298.150 Kelvin.  Pressure   1.00000 Atm.
 Atom     1 has atomic number  7 and mass  14.00307

 Molecular mass:    95.03577 amu.
 Principal axes and moments of inertia in atomic units:
                           1         2         3
     Eigenvalues --   212.36435 786.04863 998.41296
           X            0.99999  -0.00328   0.00000
           Y            0.00328   0.99999   0.00000
           Z            0.00000   0.00000   1.00000
 This molecule is an asymmetric top.
 Rotational symmetry number  1.
 Rotational temperatures (Kelvin)      0.40785     0.11019     0.08675
 Rotational constants (GHZ):           8.49832     2.29597     1.80761
 Zero-point vibrational energy     178622.2 (Joules/Mol)
                                   42.69174 (Kcal/Mol)
 Warning -- explicit consideration of   5 degrees of freedom as
           vibrations may cause significant error
 Vibrational temperatures:    209.95   349.00   444.26   753.84   851.67
          (Kelvin)            936.99   967.45  1000.93  1099.39  1259.24
                             1327.23  1418.44  1566.56  1611.74  1705.93
                             1823.78  1985.45  2058.53  2130.07  2226.83
                             2612.13  4685.28  4718.94  5222.95

 Zero-point correction=                           0.068034 (Hartree/Particle)
 Thermal correction to Energy=                    0.073509
 Thermal correction to Enthalpy=                  0.074453
 Thermal correction to Gibbs Free Energy=         0.038154
 Sum of electronic and zero-point Energies=           -335.035787
 Sum of electronic and thermal Energies=              -335.030311
 Sum of electronic and thermal Enthalpies=            -335.029367
 Sum of electronic and thermal Free Energies=         -335.065666

                     E (Thermal)             CV                S
                      KCal/Mol        Cal/Mol-Kelvin    Cal/Mol-Kelvin
 Total                   46.128             19.610             76.398
 Electronic               0.000              0.000              1.377
 Translational            0.889              2.981             39.566
 Rotational               0.889              2.981             26.613
 Vibrational             44.350             13.648              8.841
 Vibration     1          0.617              1.907              2.725
 Vibration     2          0.659              1.775              1.784
 Vibration     3          0.698              1.657              1.369
 Vibration     4          0.879              1.197              0.601
 Vibration     5          0.949              1.049              0.464

 Optimization completed.
    -- Stationary point found.
 Normal termination of Gaussian 09 at Tue Mar  6 08:49:26 2018.
