 Gaussian 09, Revision B.01,
 Gaussian 09:  EM64L-G09RevB.01 12-Aug-2010

 -------------------------------------------------
 #p Temperature=298.15 opt freq UB3LYP/aug-cc-pVDZ
 -------------------------------------------------

 ------------------------------------------
 Imidazole-2-N2+-UB3LYP-aug-cc-pVDZ-Singlet
 ------------------------------------------
 Symbolic Z-matrix:
 Charge =  1 Multiplicity = 1

 SCF Done:  E(UB3LYP) =  -334.815470838     A.U. after   16 cycles
 SCF Done:  E(UB3LYP) =  -334.834951896     A.U. after   12 cycles
 SCF Done:  E(UB3LYP) =  -334.835624830     A.U. after   15 cycles
 SCF Done:  E(UB3LYP) =  -334.835432275     A.U. after   14 cycles
 SCF Done:  E(UB3LYP) =  -334.835696089     A.U. after   12 cycles
 SCF Done:  E(UB3LYP) =  -334.835728952     A.U. after   17 cycles
 SCF Done:  E(UB3LYP) =  -334.835731304     A.U. after   17 cycles
 SCF Done:  E(UB3LYP) =  -334.835732354     A.U. after    9 cycles
 Optimization completed.
    -- Stationary point found.
 Normal termination of Gaussian 09 at Tue Mar  6 05:06:45 2018.

 ----------------------------------------------------------------------
 #P Geom=AllCheck Guess=TCheck SCRF=Check GenChk UB3LYP/Aug-CC-pVDZ Fre
 q
 ----------------------------------------------------------------------

 Imidazole-2-N2+-UB3LYP-aug-cc-pVDZ-Singlet
 ------------------------------------------
 Redundant internal coordinates taken from checkpoint file:
 Imidazole-2-N2+-UB3LYP-aug-cc-pVDZ-Singlet.chk
 Charge =  1 Multiplicity = 1

                         Standard orientation:
 ---------------------------------------------------------------------
 Center     Atomic      Atomic             Coordinates (Angstroms)
 Number     Number       Type             X           Y           Z
 ---------------------------------------------------------------------
      1          7           0       -1.640209   -0.005864   -0.000274
      2          7           0       -2.760153   -0.021062    0.000064
      3          6           0       -0.289074   -0.040462   -0.000325
      4          6           0        1.774696    0.633084   -0.000134
      5          1           0        2.627682    1.305388    0.000629
      6          7           0        0.502181    1.088337    0.000127
      7          1           0        0.206090    2.060598    0.001063
      8          6           0        1.693479   -0.774293   -0.000630
      9          1           0        2.514071   -1.485429    0.000382
     10          7           0        0.409260   -1.174343    0.000719
 ---------------------------------------------------------------------

 SCF Done:  E(UB3LYP) =  -334.835732354     A.U. after    1 cycles

 The electronic state is 1-A.
 Alpha  occ. eigenvalues --  -14.74208 -14.70622 -14.64019 -14.56434 -10.53795
 Alpha  occ. eigenvalues --  -10.46141 -10.43207  -1.39387  -1.27155  -1.12983
 Alpha  occ. eigenvalues --   -1.08946  -0.92698  -0.84759  -0.84416  -0.75312
 Alpha  occ. eigenvalues --   -0.73557  -0.72696  -0.70360  -0.66387  -0.66345
 Alpha  occ. eigenvalues --   -0.63946  -0.53002  -0.51227  -0.47219
 Alpha virt. eigenvalues --   -0.31296  -0.30780  -0.18429  -0.17527  -0.15204
 Alpha virt. eigenvalues --   -0.12998  -0.12080  -0.11607  -0.10469  -0.09298
 Alpha virt. eigenvalues --   -0.08281  -0.06129  -0.05256  -0.04652  -0.04422

  Beta  occ. eigenvalues --  -14.74208 -14.70622 -14.64019 -14.56434 -10.53795
  Beta  occ. eigenvalues --  -10.46141 -10.43207  -1.39387  -1.27155  -1.12983
  Beta  occ. eigenvalues --   -1.08946  -0.92698  -0.84759  -0.84416  -0.75312
  Beta  occ. eigenvalues --   -0.73557  -0.72696  -0.70360  -0.66387  -0.66345
  Beta  occ. eigenvalues --   -0.63946  -0.53002  -0.51227  -0.47219
  Beta virt. eigenvalues --   -0.31296  -0.30780  -0.18429  -0.17527  -0.15204
  Beta virt. eigenvalues --   -0.12998  -0.12080  -0.11607  -0.10469  -0.09298
  Beta virt. eigenvalues --   -0.08281  -0.06129  -0.05256  -0.04652  -0.04422

 Mulliken atomic charges:
              1
     1  N    0.555142
     2  N   -0.393418
     3  C    0.275574
     4  C    0.968078
     5  H   -0.425637
     6  N    0.018167
     7  H   -0.112521
     8  C    0.728378
     9  H   -0.414714
    10  N   -0.199051
 Sum of Mulliken atomic charges =   1.00000

 Dipole moment (field-independent basis, Debye):
    X=              0.7739    Y=              3.7598    Z=              0.0011  Tot=              3.8386
 Quadrupole moment (field-independent basis, Debye-Ang):
   XX=            -17.9326   YY=            -29.6122   ZZ=            -37.8642
   XY=              0.4712   XZ=              0.0034   YZ=              0.0057

  Exact polarizability: 108.491   0.894  52.123  -0.006   0.001  32.349
 Approx polarizability: 239.081   3.558  87.628  -0.029  -0.003  48.736

                     1                      2                      3
                     A                      A                      A
 Frequencies --   169.3881               183.6121               471.0106
 Red. masses --     6.3775                 7.8436                11.1414
 Frc consts  --     0.1078                 0.1558                 1.4563
 IR Inten    --     0.7796                 1.4399                 0.1054

                     4                      5                      6
                     A                      A                      A
 Frequencies --   541.7829               588.6391               607.2012
 Red. masses --     8.8042                 2.9512                10.5683
 Frc consts  --     1.5226                 0.6025                 2.2957
 IR Inten    --     0.7883                27.3811                 9.3646

                     7                      8                      9
                     A                      A                      A
 Frequencies --   641.1571               653.8465               850.0006
 Red. masses --     3.8789                 1.3882                 1.2167
 Frc consts  --     0.9395                 0.3497                 0.5179
 IR Inten    --    30.6560                61.1075                24.7675

                    10                     11                     12
                     A                      A                      A
 Frequencies --   918.5276               929.7511               983.6392
 Red. masses --     7.0190                 1.4667                 3.4982
 Frc consts  --     3.4891                 0.7470                 1.9942
 IR Inten    --     7.4056                 2.9746                18.2814

                    13                     14                     15
                     A                      A                      A
 Frequencies --  1092.9873              1128.4894              1215.4412
 Red. masses --     1.7001                 1.6581                 2.0174
 Frc consts  --     1.1966                 1.2441                 1.7559
 IR Inten    --    48.3979                74.2106                59.1564

                    16                     17                     18
                     A                      A                      A
 Frequencies --  1335.8788              1361.7023              1424.6025
 Red. masses --     2.4403                 4.9082                 6.8572
 Frc consts  --     2.5658                 5.3621                 8.1994
 IR Inten    --    81.6098               140.5949                15.9389

                    19                     20                     21
                     A                      A                      A
 Frequencies --  1478.6494              1517.6281              2300.8823
 Red. masses --     3.6353                 2.6733                13.9621
 Frc consts  --     4.6830                 3.6277                43.5503
 IR Inten    --    16.0629                 6.2031               374.6516

                    22                     23                     24
                     A                      A                      A
 Frequencies --  3261.1078              3274.9702              3577.9370
 Red. masses --     1.0960                 1.1067                 1.0846
 Frc consts  --     6.8672                 6.9938                 8.1806
 IR Inten    --    17.4156                28.8660               180.5524

 - Thermochemistry -
 -------------------
 Temperature   298.150 Kelvin.  Pressure   1.00000 Atm.
 Atom     1 has atomic number  7 and mass  14.00307

 Molecular mass:    95.03577 amu.
 Principal axes and moments of inertia in atomic units:
                           1         2         3
     Eigenvalues --   200.37780 844.617251044.99493
           X            1.00000   0.00124   0.00001
           Y           -0.00124   1.00000   0.00004
           Z           -0.00001  -0.00004   1.00000
 This molecule is an asymmetric top.
 Rotational symmetry number  1.
 Rotational temperatures (Kelvin)      0.43225     0.10255     0.08288
 Rotational constants (GHZ):           9.00669     2.13676     1.72703
 Zero-point vibrational energy     182483.3 (Joules/Mol)
                                   43.61457 (Kcal/Mol)
 Warning -- explicit consideration of   6 degrees of freedom as
           vibrations may cause significant error
 Vibrational temperatures:    243.71   264.18   677.68   779.50   846.92
          (Kelvin)            873.63   922.48   940.74  1222.96  1321.55
                             1337.70  1415.24  1572.56  1623.64  1748.75
                             1922.03  1959.18  2049.68  2127.44  2183.53
                             3310.45  4692.00  4711.95  5147.85

 Zero-point correction=                           0.069504 (Hartree/Particle)
 Thermal correction to Energy=                    0.074871
 Thermal correction to Enthalpy=                  0.075815
 Thermal correction to Gibbs Free Energy=         0.040326
 Sum of electronic and zero-point Energies=           -334.766228
 Sum of electronic and thermal Energies=              -334.760861
 Sum of electronic and thermal Enthalpies=            -334.759917
 Sum of electronic and thermal Free Energies=         -334.795406

                     E (Thermal)             CV                S
                      KCal/Mol        Cal/Mol-Kelvin    Cal/Mol-Kelvin
 Total                   46.982             19.259             74.693
 Electronic               0.000              0.000              0.000
 Translational            0.889              2.981             39.566
 Rotational               0.889              2.981             26.672
 Vibrational             45.205             13.298              8.454
 Vibration     1          0.625              1.880              2.442
 Vibration     2          0.631              1.862              2.291
 Vibration     3          0.828              1.314              0.735
 Vibration     4          0.897              1.158              0.561
 Vibration     5          0.946              1.056              0.470
 Vibration     6          0.966              1.017              0.437

 Optimization completed.
    -- Stationary point found.
 Normal termination of Gaussian 09 at Tue Mar  6 05:10:10 2018.
