 Gaussian 09, Revision B.01,
 Gaussian 09:  EM64L-G09RevB.01 12-Aug-2010

 -------------------------------------------------
 #p Temperature=298.15 opt freq UB3LYP/aug-cc-pVDZ
 -------------------------------------------------

 ---------------------------------------
 Imidazole-5+-UB3LYP-aug-cc-pVDZ-Triplet
 ---------------------------------------
 Symbolic Z-matrix:
 Charge =  1 Multiplicity = 3

 SCF Done:  E(UB3LYP) =  -225.209618205     A.U. after   17 cycles
 SCF Done:  E(UB3LYP) =  -225.226356919     A.U. after   16 cycles
 SCF Done:  E(UB3LYP) =  -225.227670974     A.U. after   17 cycles
 SCF Done:  E(UB3LYP) =  -225.227843389     A.U. after   13 cycles
 SCF Done:  E(UB3LYP) =  -225.227799408     A.U. after   17 cycles
 SCF Done:  E(UB3LYP) =  -225.227882231     A.U. after   17 cycles
 SCF Done:  E(UB3LYP) =  -225.227886287     A.U. after   17 cycles
 Optimization completed.
    -- Stationary point found.
 Normal termination of Gaussian 09 at Fri Jan 21 01:43:07 2005.

 ----------------------------------------------------------------------
 #P Geom=AllCheck Guess=TCheck SCRF=Check GenChk UB3LYP/Aug-CC-pVDZ Fre
 q
 ----------------------------------------------------------------------

 Imidazole-5+-UB3LYP-aug-cc-pVDZ-Triplet
 ---------------------------------------
 Redundant internal coordinates taken from checkpoint file:
 Imidazole-5+-UB3LYP-aug-cc-pVDZ-Triplet.chk
 Charge =  1 Multiplicity = 3

                         Standard orientation:
 ---------------------------------------------------------------------
 Center     Atomic      Atomic             Coordinates (Angstroms)
 Number     Number       Type             X           Y           Z
 ---------------------------------------------------------------------
      1          6           0        0.019039   -1.200428    0.000107
      2          6           0       -1.174524   -0.354917    0.000005
      3          1           0       -2.213635   -0.675617    0.000173
      4          6           0        0.594663    0.891034    0.000225
      5          1           0        1.223748    1.779349    0.000104
      6          7           0        1.089484   -0.392676   -0.000167
      7          1           0        2.066822   -0.681158   -0.000040
      8          7           0       -0.762627    0.901718   -0.000155
 ---------------------------------------------------------------------

 SCF Done:  E(UB3LYP) =  -225.227886287     A.U. after    1 cycles

 The electronic state is 3-A.
 Alpha  occ. eigenvalues --  -14.66599 -14.59509 -10.55147 -10.54447 -10.50589
 Alpha  occ. eigenvalues --   -1.30792  -1.16156  -1.01920  -0.89393  -0.86734
 Alpha  occ. eigenvalues --   -0.80677  -0.72309  -0.71817  -0.68435  -0.58885
 Alpha  occ. eigenvalues --   -0.56857  -0.52709  -0.52116
 Alpha virt. eigenvalues --   -0.26960  -0.22557  -0.17876  -0.13249  -0.13078
 Alpha virt. eigenvalues --   -0.11748  -0.11059  -0.10001  -0.09077  -0.06290
 Alpha virt. eigenvalues --   -0.05372  -0.05050  -0.04231  -0.03971  -0.03120

  Beta  occ. eigenvalues --  -14.66758 -14.59429 -10.53616 -10.52845 -10.50063
  Beta  occ. eigenvalues --   -1.29430  -1.15631  -0.98488  -0.88480  -0.85259
  Beta  occ. eigenvalues --   -0.78567  -0.71229  -0.68981  -0.67803  -0.56403
  Beta  occ. eigenvalues --   -0.53341
  Beta virt. eigenvalues --   -0.40348  -0.37948  -0.22437  -0.18611  -0.17790
  Beta virt. eigenvalues --   -0.13074  -0.12457  -0.11449  -0.10645  -0.09222
  Beta virt. eigenvalues --   -0.08842  -0.05862  -0.05047  -0.04323  -0.04100

 Mulliken atomic charges:
              1
     1  C    0.243672
     2  C    0.581405
     3  H   -0.198538
     4  C    0.734986
     5  H   -0.149619
     6  N    0.055008
     7  H   -0.082907
     8  N   -0.184007
 Sum of Mulliken atomic charges =   1.00000

 Dipole moment (field-independent basis, Debye):
    X=              2.6207    Y=             -1.4583    Z=              0.0008  Tot=              2.9992
 Quadrupole moment (field-independent basis, Debye-Ang):
   XX=            -13.5154   YY=            -21.7560   ZZ=            -26.9388
   XY=              3.3883   XZ=             -0.0002   YZ=              0.0004

  Exact polarizability:  46.535   0.472  49.013   0.001  -0.001  24.719
 Approx polarizability:  74.207  -0.814  90.398   0.003  -0.002  36.755

                     1                      2                      3
                     A                      A                      A
 Frequencies --   490.5719               571.9750               713.6999
 Red. masses --     2.8885                 2.7393                 1.1336
 Frc consts  --     0.4096                 0.5280                 0.3402
 IR Inten    --    15.6631                24.8040                91.5598

                     4                      5                      6
                     A                      A                      A
 Frequencies --   785.0011               864.7838               889.6324
 Red. masses --     9.5557                 1.5551                 1.6784
 Frc consts  --     3.4694                 0.6852                 0.7826
 IR Inten    --    38.4781                17.3410                 0.6825

                     7                      8                      9
                     A                      A                      A
 Frequencies --   902.3764               968.4741              1053.5647
 Red. masses --     7.5420                 2.6956                 2.3096
 Frc consts  --     3.6184                 1.4897                 1.5105
 IR Inten    --     9.5967                 7.7857                50.8990

                    10                     11                     12
                     A                      A                      A
 Frequencies --  1166.4601              1228.8979              1262.8340
 Red. masses --     4.0095                 2.1770                 1.4078
 Frc consts  --     3.2142                 1.9371                 1.3227
 IR Inten    --     7.5963                 9.9084                19.5381

                    13                     14                     15
                     A                      A                      A
 Frequencies --  1338.6373              1413.1459              1488.2630
 Red. masses --     2.5748                 3.0456                 2.6781
 Frc consts  --     2.7185                 3.5834                 3.4949
 IR Inten    --     7.6698               108.2199                23.2686

                    16                     17                     18
                     A                      A                      A
 Frequencies --  3246.3490              3262.4807              3546.5131
 Red. masses --     1.1003                 1.1022                 1.0840
 Frc consts  --     6.8321                 6.9122                 8.0329
 IR Inten    --    30.1990                28.1583               247.4937

 - Thermochemistry -
 -------------------
 Temperature   298.150 Kelvin.  Pressure   1.00000 Atm.
 Atom     1 has atomic number  6 and mass  12.00000

 Molecular mass:    67.02962 amu.
 Principal axes and moments of inertia in atomic units:
                           1         2         3
     Eigenvalues --   162.55322 202.75089 365.30410
           X            0.97878   0.20490  -0.00001
           Y           -0.20490   0.97878   0.00000
           Z            0.00001   0.00000   1.00000
 This molecule is an asymmetric top.
 Rotational symmetry number  1.
 Rotational temperatures (Kelvin)      0.53283     0.42719     0.23710
 Rotational constants (GHZ):          11.10246     8.90127     4.94038
 Zero-point vibrational energy     150691.6 (Joules/Mol)
                                   36.01615 (Kcal/Mol)
 Warning -- explicit consideration of   2 degrees of freedom as
           vibrations may cause significant error
 Vibrational temperatures:    705.82   822.94  1026.85  1129.44  1244.23
          (Kelvin)           1279.98  1298.32  1393.42  1515.84  1678.27
                             1768.11  1816.93  1926.00  2033.20  2141.28
                             4670.77  4693.98  5102.63

 Zero-point correction=                           0.057395 (Hartree/Particle)
 Thermal correction to Energy=                    0.061137
 Thermal correction to Enthalpy=                  0.062081
 Thermal correction to Gibbs Free Energy=         0.030153
 Sum of electronic and zero-point Energies=           -225.170491
 Sum of electronic and thermal Energies=              -225.166749
 Sum of electronic and thermal Enthalpies=            -225.165805
 Sum of electronic and thermal Free Energies=         -225.197733

                     E (Thermal)             CV                S
                      KCal/Mol        Cal/Mol-Kelvin    Cal/Mol-Kelvin
 Total                   38.364             12.991             67.198
 Electronic               0.000              0.000              2.183
 Translational            0.889              2.981             38.526
 Rotational               0.889              2.981             24.002
 Vibrational             36.587              7.029              2.487
 Vibration     1          0.846              1.271              0.682
 Vibration     2          0.928              1.092              0.500

 Optimization completed.
    -- Stationary point found.
 Normal termination of Gaussian 09 at Fri Jan 21 01:44:17 2005.
