 Gaussian 09, Revision B.01,
 Gaussian 09:  EM64L-G09RevB.01 12-Aug-2010

 -------------------------------------------------
 #p Temperature=298.15 opt freq UB3LYP/aug-cc-pVDZ
 -------------------------------------------------

 ------------------------------------------
 Imidazole-4-N2+-UB3LYP-aug-cc-pVDZ-Triplet
 ------------------------------------------
 Symbolic Z-matrix:
 Charge =  1 Multiplicity = 3

 SCF Done:  E(UB3LYP) =  -334.452908110     A.U. after   25 cycles
 SCF Done:  E(UB3LYP) =  -334.607568900     A.U. after   21 cycles
 SCF Done:  E(UB3LYP) =  -334.695733835     A.U. after   24 cycles
 SCF Done:  E(UB3LYP) =  -334.724856687     A.U. after   23 cycles
 SCF Done:  E(UB3LYP) =  -334.666173787     A.U. after   19 cycles
 SCF Done:  E(UB3LYP) =  -334.741435511     A.U. after   21 cycles
 SCF Done:  E(UB3LYP) =  -334.749595392     A.U. after   22 cycles
 SCF Done:  E(UB3LYP) =  -334.751853672     A.U. after   18 cycles
 SCF Done:  E(UB3LYP) =  -334.752406272     A.U. after   17 cycles
 SCF Done:  E(UB3LYP) =  -334.752949519     A.U. after   18 cycles
 SCF Done:  E(UB3LYP) =  -334.768204984     A.U. after   14 cycles
 SCF Done:  E(UB3LYP) =  -334.768281250     A.U. after   18 cycles
 SCF Done:  E(UB3LYP) =  -334.768530796     A.U. after   15 cycles
 SCF Done:  E(UB3LYP) =  -334.768750473     A.U. after   18 cycles
 SCF Done:  E(UB3LYP) =  -334.769113120     A.U. after   18 cycles
 SCF Done:  E(UB3LYP) =  -334.769297712     A.U. after   15 cycles
 SCF Done:  E(UB3LYP) =  -334.769377846     A.U. after   15 cycles
 SCF Done:  E(UB3LYP) =  -334.769386194     A.U. after   14 cycles
 SCF Done:  E(UB3LYP) =  -334.769386362     A.U. after   11 cycles
 Optimization completed.
    -- Stationary point found.
 Normal termination of Gaussian 09 at Fri Feb  4 04:52:07 2005.

 ----------------------------------------------------------------------
 #P Geom=AllCheck Guess=TCheck SCRF=Check GenChk UB3LYP/Aug-CC-pVDZ Fre
 q
 ----------------------------------------------------------------------

 Imidazole-4-N2+-UB3LYP-aug-cc-pVDZ-Triplet
 ------------------------------------------
 Redundant internal coordinates taken from checkpoint file:
 Imidazole-4-N2+-UB3LYP-aug-cc-pVDZ-Triplet.chk
 Charge =  1 Multiplicity = 3

                         Standard orientation:
 ---------------------------------------------------------------------
 Center     Atomic      Atomic             Coordinates (Angstroms)
 Number     Number       Type             X           Y           Z
 ---------------------------------------------------------------------
      1          7           0       -1.741309   -0.465115   -0.164953
      2          7           0       -2.546258    0.349316    0.181335
      3          6           0       -0.358229   -0.223717   -0.055227
      4          6           0        1.719589   -0.619947    0.062918
      5          1           0        2.683283   -1.120060    0.132282
      6          7           0        1.605166    0.779913    0.010083
      7          1           0        2.378808    1.443145    0.014766
      8          6           0        0.312880    1.082280   -0.059701
      9          1           0       -0.089960    2.091430   -0.116684
     10          7           0        0.537033   -1.213572    0.013777
 ---------------------------------------------------------------------

 SCF Done:  E(UB3LYP) =  -334.769386362     A.U. after    1 cycles

 The electronic state is 3-A.
 Alpha  occ. eigenvalues --  -14.66421 -14.62757 -14.61665 -14.57923 -10.53531
 Alpha  occ. eigenvalues --  -10.53113 -10.52716  -1.30626  -1.28054  -1.15983
 Alpha  occ. eigenvalues --   -1.03256  -0.94517  -0.88321  -0.83574  -0.78900
 Alpha  occ. eigenvalues --   -0.72175  -0.71955  -0.69678  -0.67521  -0.64343
 Alpha  occ. eigenvalues --   -0.60952  -0.56032  -0.53429  -0.50845  -0.42099
 Alpha virt. eigenvalues --   -0.29316  -0.24904  -0.18230  -0.18207  -0.14196
 Alpha virt. eigenvalues --   -0.13268  -0.12838  -0.11358  -0.08942  -0.07805
 Alpha virt. eigenvalues --   -0.06490  -0.06317  -0.05911  -0.05156  -0.04128

  Beta  occ. eigenvalues --  -14.66493 -14.62457 -14.59745 -14.58163 -10.52661
  Beta  occ. eigenvalues --  -10.52491 -10.52098  -1.29689  -1.26159  -1.15821
  Beta  occ. eigenvalues --   -1.00847  -0.92648  -0.87541  -0.82814  -0.77677
  Beta  occ. eigenvalues --   -0.71203  -0.69590  -0.69026  -0.63268  -0.62400
  Beta  occ. eigenvalues --   -0.57355  -0.55120  -0.53384
  Beta virt. eigenvalues --   -0.40720  -0.26714  -0.25907  -0.22252  -0.18164
  Beta virt. eigenvalues --   -0.15483  -0.13826  -0.12998  -0.12383  -0.10998
  Beta virt. eigenvalues --   -0.08741  -0.07637  -0.05986  -0.05900  -0.05800

 Mulliken atomic charges:
              1
     1  N    0.083426
     2  N   -0.363938
     3  C    0.384438
     4  C    0.719288
     5  H   -0.219600
     6  N   -0.053306
     7  H   -0.080019
     8  C    1.032237
     9  H   -0.346543
    10  N   -0.155985
 Sum of Mulliken atomic charges =   1.00000

 Dipole moment (field-independent basis, Debye):
    X=              6.0579    Y=              3.8572    Z=             -0.0784  Tot=              7.1821
 Quadrupole moment (field-independent basis, Debye-Ang):
   XX=            -20.3648   YY=            -31.1181   ZZ=            -36.9983
   XY=              2.1783   XZ=              0.7153   YZ=             -0.9038

  Exact polarizability:  84.058  -3.497  54.949  -0.042   0.457  32.546
 Approx polarizability: 134.124 -11.471  91.844  -0.573   2.147  50.500

                     1                      2                      3
                     A                      A                      A
 Frequencies --    55.8588               197.6364               282.6814
 Red. masses --     8.9779                 6.5431                 6.7240
 Frc consts  --     0.0165                 0.1506                 0.3166
 IR Inten    --     1.2072                 1.3889                 9.0782

                     4                      5                      6
                     A                      A                      A
 Frequencies --   506.4522               527.7208               602.4274
 Red. masses --     7.1901                 2.5544                 5.0474
 Frc consts  --     1.0866                 0.4191                 1.0793
 IR Inten    --     2.2000                27.1036                 6.5160

                     7                      8                      9
                     A                      A                      A
 Frequencies --   650.4190               740.5992               875.7900
 Red. masses --     3.4618                 1.3514                 1.5632
 Frc consts  --     0.8629                 0.4367                 0.7064
 IR Inten    --     6.3202               101.3375                 0.1853

                    10                     11                     12
                     A                      A                      A
 Frequencies --   897.0606               909.9203               918.2845
 Red. masses --     1.6566                 5.1761                 8.0474
 Frc consts  --     0.7854                 2.5250                 3.9982
 IR Inten    --     3.4327                 4.3518                 5.2480

                    13                     14                     15
                     A                      A                      A
 Frequencies --   964.4275              1119.4844              1212.5386
 Red. masses --     2.5110                 1.3686                 1.7468
 Frc consts  --     1.3761                 1.0106                 1.5132
 IR Inten    --    14.6716                 7.4853                41.8919

                    16                     17                     18
                     A                      A                      A
 Frequencies --  1268.6730              1313.7239              1395.2023
 Red. masses --     5.8167                 2.5347                 7.8312
 Frc consts  --     5.5160                 2.5774                 8.9816
 IR Inten    --    99.1337                29.7857                97.3244

                    19                     20                     21
                     A                      A                      A
 Frequencies --  1442.0870              1546.0046              1751.7972
 Red. masses --     1.8491                 3.5747                13.9365
 Frc consts  --     2.2656                 5.0339                25.1983
 IR Inten    --   113.0196                36.5558                43.8986

                    22                     23                     24
                     A                      A                      A
 Frequencies --  3251.0934              3255.7678              3544.9892
 Red. masses --     1.0992                 1.1046                 1.0844
 Frc consts  --     6.8452                 6.8986                 8.0293
 IR Inten    --    58.5192                14.9185               233.6040

 - Thermochemistry -
 -------------------
 Temperature   298.150 Kelvin.  Pressure   1.00000 Atm.
 Atom     1 has atomic number  7 and mass  14.00307

 Molecular mass:    95.03577 amu.
 Principal axes and moments of inertia in atomic units:
                           1         2         3
     Eigenvalues --   220.90927 804.480761018.24053
           X            1.00000   0.00222   0.00178
           Y           -0.00221   0.99998  -0.00613
           Z           -0.00179   0.00613   0.99998
 This molecule is an asymmetric top.
 Rotational symmetry number  1.
 Rotational temperatures (Kelvin)      0.39208     0.10766     0.08506
 Rotational constants (GHZ):           8.16960     2.24336     1.77241
 Zero-point vibrational energy     174838.1 (Joules/Mol)
                                   41.78730 (Kcal/Mol)
 Warning -- explicit consideration of   6 degrees of freedom as
           vibrations may cause significant error
 Vibrational temperatures:     80.37   284.35   406.71   728.67   759.27
          (Kelvin)            866.76   935.81  1065.56  1260.06  1290.67
                             1309.17  1321.20  1387.59  1610.69  1744.57
                             1825.34  1890.15  2007.38  2074.84  2224.35
                             2520.44  4677.59  4684.32  5100.44

 Zero-point correction=                           0.066592 (Hartree/Particle)
 Thermal correction to Energy=                    0.072409
 Thermal correction to Enthalpy=                  0.073353
 Thermal correction to Gibbs Free Energy=         0.035392
 Sum of electronic and zero-point Energies=           -334.702794
 Sum of electronic and thermal Energies=              -334.696978
 Sum of electronic and thermal Enthalpies=            -334.696034
 Sum of electronic and thermal Free Energies=         -334.733994

                     E (Thermal)             CV                S
                      KCal/Mol        Cal/Mol-Kelvin    Cal/Mol-Kelvin
 Total                   45.437             20.095             79.895
 Electronic               0.000              0.000              2.183
 Translational            0.889              2.981             39.566
 Rotational               0.889              2.981             26.695
 Vibrational             43.660             14.133             11.451
 Vibration     1          0.596              1.975              4.598
 Vibration     2          0.637              1.843              2.155
 Vibration     3          0.682              1.706              1.517
 Vibration     4          0.862              1.236              0.642
 Vibration     5          0.883              1.189              0.592
 Vibration     6          0.961              1.027              0.446

 Optimization completed.
    -- Stationary point found.
 Normal termination of Gaussian 09 at Fri Feb  4 04:55:39 2005.
