 Gaussian 09, Revision B.01,
 Gaussian 09:  EM64L-G09RevB.01 12-Aug-2010

 -------------------------------------------------
 #p Temperature=298.15 opt freq UB3LYP/aug-cc-pVDZ
 -------------------------------------------------

 ----------------------------------------
 Imidazole-4-N2-UB3LYP-aug-cc-pVDZ-Duplet
 ----------------------------------------
 Symbolic Z-matrix:
 Charge =  0 Multiplicity = 2

 SCF Done:  E(UB3LYP) =  -335.055061469     A.U. after   22 cycles
 SCF Done:  E(UB3LYP) =  -335.075339440     A.U. after   20 cycles
 SCF Done:  E(UB3LYP) =  -335.076673823     A.U. after   19 cycles
 SCF Done:  E(UB3LYP) =  -335.076686836     A.U. after   19 cycles
 SCF Done:  E(UB3LYP) =  -335.076821446     A.U. after   19 cycles
 SCF Done:  E(UB3LYP) =  -335.076835143     A.U. after   18 cycles
 SCF Done:  E(UB3LYP) =  -335.076862461     A.U. after   17 cycles
 SCF Done:  E(UB3LYP) =  -335.029916503     A.U. after   23 cycles
 SCF Done:  E(UB3LYP) =  -335.076869211     A.U. after   21 cycles
 SCF Done:  E(UB3LYP) =  -335.080896991     A.U. after   20 cycles
 SCF Done:  E(UB3LYP) =  -335.098441767     A.U. after   19 cycles
 SCF Done:  E(UB3LYP) =  -335.100192460     A.U. after   19 cycles
 SCF Done:  E(UB3LYP) =  -335.101911705     A.U. after   19 cycles
 SCF Done:  E(UB3LYP) =  -335.103061260     A.U. after   18 cycles
 SCF Done:  E(UB3LYP) =  -335.103361683     A.U. after   19 cycles
 SCF Done:  E(UB3LYP) =  -335.103632352     A.U. after   17 cycles
 SCF Done:  E(UB3LYP) =  -335.103820252     A.U. after   14 cycles
 SCF Done:  E(UB3LYP) =  -335.103842008     A.U. after   13 cycles
 SCF Done:  E(UB3LYP) =  -335.103842933     A.U. after   12 cycles
 Optimization completed.
    -- Stationary point found.
 Normal termination of Gaussian 09 at Tue Mar  6 09:17:28 2018.

 ----------------------------------------------------------------------
 #P Geom=AllCheck Guess=TCheck SCRF=Check GenChk UB3LYP/Aug-CC-pVDZ Fre
 q
 ----------------------------------------------------------------------

 Imidazole-4-N2-UB3LYP-aug-cc-pVDZ-Duplet
 ----------------------------------------
 Redundant internal coordinates taken from checkpoint file:
 Imidazole-4-N2-UB3LYP-aug-cc-pVDZ-Duplet.chk
 Charge =  0 Multiplicity = 2

                         Standard orientation:
 ---------------------------------------------------------------------
 Center     Atomic      Atomic             Coordinates (Angstroms)
 Number     Number       Type             X           Y           Z
 ---------------------------------------------------------------------
      1          7           0       -1.737015   -0.487645    0.000735
      2          7           0       -2.606541    0.321750   -0.000707
      3          6           0       -0.341631   -0.178354    0.000171
      4          6           0        1.748970   -0.596456   -0.000200
      5          1           0        2.715578   -1.087741   -0.000131
      6          7           0        1.615274    0.769905   -0.000429
      7          1           0        2.368157    1.444486    0.001481
      8          6           0        0.274098    1.059684    0.000401
      9          1           0       -0.119752    2.067993    0.000037
     10          7           0        0.577910   -1.194578   -0.000116
 ---------------------------------------------------------------------

 SCF Done:  E(UB3LYP) =  -335.103842933     A.U. after    1 cycles

 The electronic state is 2-A.
 Alpha  occ. eigenvalues --  -14.42534 -14.41636 -14.39280 -14.34584 -10.27073
 Alpha  occ. eigenvalues --  -10.26477 -10.25236  -1.07341  -1.04878  -0.91195
 Alpha  occ. eigenvalues --   -0.79469  -0.71229  -0.64600  -0.59973  -0.55169
 Alpha  occ. eigenvalues --   -0.48527  -0.47629  -0.46718  -0.46132  -0.42548
 Alpha  occ. eigenvalues --   -0.40332  -0.31788  -0.30923  -0.26322  -0.20545
 Alpha virt. eigenvalues --   -0.06823  -0.03118  -0.01104   0.00118   0.01191
 Alpha virt. eigenvalues --    0.03632   0.03873   0.04967   0.05695   0.05935
 Alpha virt. eigenvalues --    0.07171   0.08127   0.08528   0.08711   0.09049

  Beta  occ. eigenvalues --  -14.42539 -14.41233 -14.37715 -14.34607 -10.27066
  Beta  occ. eigenvalues --  -10.26120 -10.25246  -1.06170  -1.04192  -0.91099
  Beta  occ. eigenvalues --   -0.78775  -0.69924  -0.64419  -0.59877  -0.54202
  Beta  occ. eigenvalues --   -0.47900  -0.47503  -0.46578  -0.42532  -0.41879
  Beta  occ. eigenvalues --   -0.36623  -0.31697  -0.30836  -0.26050
  Beta virt. eigenvalues --   -0.06282  -0.05806  -0.03038  -0.01064   0.00120
  Beta virt. eigenvalues --    0.01265   0.03659   0.03865   0.05049   0.05991
  Beta virt. eigenvalues --    0.06052   0.07200   0.08135   0.08654   0.08764

 Mulliken atomic charges:
              1
     1  N    0.128979
     2  N   -0.614013
     3  C    0.155710
     4  C    0.578617
     5  H   -0.354573
     6  N   -0.089795
     7  H   -0.174329
     8  C    1.167347
     9  H   -0.505045
    10  N   -0.292897
 Sum of Mulliken atomic charges =   0.00000

 Dipole moment (field-independent basis, Debye):
    X=              5.1888    Y=              3.3297    Z=              0.0029  Tot=              6.1652
 Quadrupole moment (field-independent basis, Debye-Ang):
   XX=            -38.1616   YY=            -39.7448   ZZ=            -41.0243
   XY=              3.1527   XZ=              0.0056   YZ=              0.0066

  Exact polarizability:  90.756  -3.032  64.800   0.005  -0.001  38.819
 Approx polarizability: 140.012  -5.840 110.083   0.012  -0.004  58.177

                     1                      2                      3
                     A                      A                      A
 Frequencies --   113.7391               244.1890               286.2405
 Red. masses --     8.3148                 7.0846                 7.1979
 Frc consts  --     0.0634                 0.2489                 0.3475
 IR Inten    --     0.3220                 6.4051                 3.4808

                     4                      5                      6
                     A                      A                      A
 Frequencies --   510.1336               584.6627               655.3785
 Red. masses --     9.8724                 1.7300                 9.6857
 Frc consts  --     1.5137                 0.3484                 2.4511
 IR Inten    --     2.2808                93.6298                22.5039

                     7                      8                      9
                     A                      A                      A
 Frequencies --   656.7648               690.1567               781.1881
 Red. masses --     1.6792                 3.1232                 1.6351
 Frc consts  --     0.4268                 0.8765                 0.5879
 IR Inten    --     9.2901                 0.1288                 8.6513

                    10                     11                     12
                     A                      A                      A
 Frequencies --   835.1192               941.3220               975.8812
 Red. masses --     1.3941                 5.1756                 3.7529
 Frc consts  --     0.5729                 2.7020                 2.1058
 IR Inten    --    31.7340                 0.4580                 7.8043

                    13                     14                     15
                     A                      A                      A
 Frequencies --  1078.4065              1116.7657              1234.1749
 Red. masses --     1.7033                 1.7380                 1.5942
 Frc consts  --     1.1671                 1.2771                 1.4307
 IR Inten    --    32.7050                 3.6907                10.7020

                    16                     17                     18
                     A                      A                      A
 Frequencies --  1274.5515              1367.3361              1426.8139
 Red. masses --     4.5759                 4.7169                 3.5276
 Frc consts  --     4.3797                 5.1959                 4.2312
 IR Inten    --     8.2253                13.8485                31.1956

                    19                     20                     21
                     A                      A                      A
 Frequencies --  1510.0381              1541.9112              1839.1267
 Red. masses --     3.9253                 3.3985                13.9410
 Frc consts  --     5.2735                 4.7605                27.7823
 IR Inten    --    18.4841                 0.5726                32.2799

                    22                     23                     24
                     A                      A                      A
 Frequencies --  3263.6879              3291.3670              3631.6638
 Red. masses --     1.0983                 1.1003                 1.0821
 Frc consts  --     6.8928                 7.0227                 8.4083
 IR Inten    --     0.7293                 3.7565                69.6252

 - Thermochemistry -
 -------------------
 Temperature   298.150 Kelvin.  Pressure   1.00000 Atm.
 Atom     1 has atomic number  7 and mass  14.00307

 Molecular mass:    95.03577 amu.
 Principal axes and moments of inertia in atomic units:
                           1         2         3
     Eigenvalues --   209.73673 822.961211032.69778
           X            1.00000   0.00198   0.00001
           Y           -0.00198   1.00000   0.00004
           Z           -0.00001  -0.00004   1.00000
 This molecule is an asymmetric top.
 Rotational symmetry number  1.
 Rotational temperatures (Kelvin)      0.41296     0.10525     0.08387
 Rotational constants (GHZ):           8.60479     2.19298     1.74760
 Zero-point vibrational energy     178546.3 (Joules/Mol)
                                   42.67360 (Kcal/Mol)
 Warning -- explicit consideration of   5 degrees of freedom as
           vibrations may cause significant error
 Vibrational temperatures:    163.64   351.33   411.84   733.97   841.20
          (Kelvin)            942.94   944.94   992.98  1123.95  1201.55
                             1354.35  1404.07  1551.58  1606.77  1775.70
                             1833.79  1967.29  2052.86  2172.61  2218.46
                             2646.09  4695.71  4735.54  5225.15

 Zero-point correction=                           0.068005 (Hartree/Particle)
 Thermal correction to Energy=                    0.073586
 Thermal correction to Enthalpy=                  0.074530
 Thermal correction to Gibbs Free Energy=         0.037884
 Sum of electronic and zero-point Energies=           -335.035838
 Sum of electronic and thermal Energies=              -335.030257
 Sum of electronic and thermal Enthalpies=            -335.029313
 Sum of electronic and thermal Free Energies=         -335.065959

                     E (Thermal)             CV                S
                      KCal/Mol        Cal/Mol-Kelvin    Cal/Mol-Kelvin
 Total                   46.176             19.753             77.128
 Electronic               0.000              0.000              1.377
 Translational            0.889              2.981             39.566
 Rotational               0.889              2.981             26.680
 Vibrational             44.398             13.792              9.504
 Vibration     1          0.607              1.938              3.204
 Vibration     2          0.660              1.772              1.772
 Vibration     3          0.684              1.699              1.496
 Vibration     4          0.865              1.228              0.633
 Vibration     5          0.942              1.065              0.477

 Optimization completed.
    -- Stationary point found.
 Normal termination of Gaussian 09 at Tue Mar  6 09:21:10 2018.
