 Gaussian 09, Revision B.01,
 Gaussian 09:  EM64L-G09RevB.01 12-Aug-2010

 -------------------------------------------------
 #p Temperature=298.15 opt freq UB3LYP/aug-cc-pVDZ
 -------------------------------------------------

 ---------------------------------------------
 N-O-Pyridine-3-N2+-UB3LYP-aug-cc-pVDZ-Triplet
 ---------------------------------------------
 Symbolic Z-matrix:
 Charge =  1 Multiplicity = 3

 SCF Done:  E(UB3LYP) =  -432.007890825     A.U. after   24 cycles
 SCF Done:  E(UB3LYP) =  -432.022058161     A.U. after   21 cycles
 SCF Done:  E(UB3LYP) =  -432.023477325     A.U. after   18 cycles
 SCF Done:  E(UB3LYP) =  -432.023565641     A.U. after   17 cycles
 SCF Done:  E(UB3LYP) =  -432.023572122     A.U. after   16 cycles
 SCF Done:  E(UB3LYP) =  -432.023573095     A.U. after   22 cycles
 Optimization completed.
    -- Stationary point found.
 Normal termination of Gaussian 09 at Fri Jan 21 03:09:51 2005.

 ----------------------------------------------------------------------
 #P Geom=AllCheck Guess=TCheck SCRF=Check GenChk UB3LYP/Aug-CC-pVDZ Fre
 q
 ----------------------------------------------------------------------

 N-O-Pyridine-3-N2+-UB3LYP-aug-cc-pVDZ-Triplet
 ---------------------------------------------
 Redundant internal coordinates taken from checkpoint file:
 N-O-Pyridine-3-N2+-UB3LYP-aug-cc-pVDZ-Triplet.chk
 Charge =  1 Multiplicity = 3

                         Standard orientation:
 ---------------------------------------------------------------------
 Center     Atomic      Atomic             Coordinates (Angstroms)
 Number     Number       Type             X           Y           Z
 ---------------------------------------------------------------------
      1          6           0        0.074645   -0.955449    0.000098
      2          6           0       -0.904268    0.046854    0.000105
      3          6           0       -0.504067    1.449164    0.000262
      4          6           0        0.849616    1.752716   -0.000025
      5          1           0       -0.113754   -2.026531    0.000371
      6          7           0       -2.197809   -0.302414   -0.000520
      7          7           0       -3.311927   -0.562748    0.000170
      8          1           0        1.173349    2.792713    0.000073
      9          1           0       -1.264894    2.227283    0.000819
     10          7           0        1.383170   -0.583580   -0.000180
     11          6           0        1.814207    0.752978   -0.000262
     12          1           0        2.892483    0.878473   -0.000286
     13          8           0        2.277246   -1.501041    0.000208
 ---------------------------------------------------------------------

 SCF Done:  E(UB3LYP) =  -432.023573095     A.U. after    1 cycles

 The electronic state is 3-A.
 Alpha  occ. eigenvalues --  -19.43256 -14.70981 -14.67243 -14.64159 -10.49147
 Alpha  occ. eigenvalues --  -10.47965 -10.45122 -10.43630 -10.41775  -1.37933
 Alpha  occ. eigenvalues --   -1.32433  -1.14929  -1.08128  -1.02090  -0.96028
 Alpha  occ. eigenvalues --   -0.86777  -0.83474  -0.75885  -0.74114  -0.72947
 Alpha  occ. eigenvalues --   -0.71360  -0.70140  -0.67489  -0.66391  -0.65734
 Alpha  occ. eigenvalues --   -0.61997  -0.59575  -0.58476  -0.52869  -0.51278
 Alpha  occ. eigenvalues --   -0.50328  -0.37033
 Alpha virt. eigenvalues --   -0.28027  -0.26390  -0.21043  -0.15213  -0.12569
 Alpha virt. eigenvalues --   -0.12319  -0.11612  -0.11438  -0.09787  -0.08946
 Alpha virt. eigenvalues --   -0.08783  -0.06529  -0.06216  -0.05579  -0.05426

  Beta  occ. eigenvalues --  -19.41400 -14.71017 -14.67121 -14.63232 -10.49066
  Beta  occ. eigenvalues --  -10.47735 -10.44479 -10.42987 -10.42008  -1.35651
  Beta  occ. eigenvalues --   -1.31431  -1.13282  -1.06562  -1.01133  -0.94727
  Beta  occ. eigenvalues --   -0.86044  -0.82993  -0.75051  -0.73451  -0.70040
  Beta  occ. eigenvalues --   -0.69532  -0.67279  -0.66786  -0.65569  -0.64474
  Beta  occ. eigenvalues --   -0.61569  -0.59225  -0.53595  -0.51074  -0.48975
  Beta virt. eigenvalues --   -0.36988  -0.27832  -0.25539  -0.24728  -0.17918
  Beta virt. eigenvalues --   -0.15086  -0.12482  -0.12091  -0.11294  -0.10673
  Beta virt. eigenvalues --   -0.09611  -0.08642  -0.07435  -0.06090  -0.06068

 Mulliken atomic charges:
              1
     1  C    0.757648
     2  C    0.554678
     3  C    1.334496
     4  C    0.870344
     5  H   -0.636847
     6  N    0.340561
     7  N   -0.590859
     8  H   -0.626337
     9  H   -0.705274
    10  N    0.181137
    11  C    0.628259
    12  H   -0.596566
    13  O   -0.511241
 Sum of Mulliken atomic charges =   1.00000

 Dipole moment (field-independent basis, Debye):
    X=             -0.0031    Y=              1.9921    Z=              0.0002  Tot=              1.9921
 Quadrupole moment (field-independent basis, Debye-Ang):
   XX=            -36.0958   YY=            -35.4160   ZZ=            -49.2611
   XY=              3.5537   XZ=             -0.0013   YZ=              0.0012

  Exact polarizability: 156.325   9.166  90.200  -0.003   0.000  42.248
 Approx polarizability: 294.431  16.194 151.103  -0.011  -0.001  64.807

                     1                      2                      3
                     A                      A                      A
 Frequencies --   130.8594               155.9269               160.7578
 Red. masses --     6.9777                 9.3079                 5.3496
 Frc consts  --     0.0704                 0.1333                 0.0815
 IR Inten    --     1.0932                 2.3968                 0.1445

                     4                      5                      6
                     A                      A                      A
 Frequencies --   219.1049               378.1234               432.1670
 Red. masses --     7.5050                 3.1271                10.9241
 Frc consts  --     0.2123                 0.2634                 1.2021
 IR Inten    --     1.0404                 3.3063                 2.4403

                     7                      8                      9
                     A                      A                      A
 Frequencies --   454.3222               499.2032               542.1561
 Red. masses --     8.4391                 4.7832                 8.6887
 Frc consts  --     1.0263                 0.7023                 1.5047
 IR Inten    --     7.8292                 2.1948                 0.7728

                    10                     11                     12
                     A                      A                      A
 Frequencies --   563.8812               619.1575               717.4846
 Red. masses --     6.0906                 1.8751                 8.0511
 Frc consts  --     1.1410                 0.4235                 2.4419
 IR Inten    --    12.0160                35.7641                17.4562

                    13                     14                     15
                     A                      A                      A
 Frequencies --   725.4311               802.1455               874.7094
 Red. masses --     1.7219                 1.4674                 1.3958
 Frc consts  --     0.5339                 0.5563                 0.6292
 IR Inten    --    28.5594                 6.2306                16.5694

                    16                     17                     18
                     A                      A                      A
 Frequencies --   944.3984               973.1569               982.0911
 Red. masses --     2.8071                 1.3125                 6.0994
 Frc consts  --     1.4751                 0.7323                 3.4661
 IR Inten    --    15.9962                 1.3080                42.7821

                    19                     20                     21
                     A                      A                      A
 Frequencies --  1109.0973              1154.4501              1199.6165
 Red. masses --     1.5275                 1.2805                 3.5150
 Frc consts  --     1.1070                 1.0055                 2.9803
 IR Inten    --     2.6091                 1.0491                 2.7332

                    22                     23                     24
                     A                      A                      A
 Frequencies --  1285.5026              1313.9063              1335.9220
 Red. masses --     4.5599                 1.6551                 3.9319
 Frc consts  --     4.4397                 1.6835                 4.1345
 IR Inten    --    25.4940                 7.9963               163.8607

                    25                     26                     27
                     A                      A                      A
 Frequencies --  1389.7700              1463.0687              1494.7391
 Red. masses --     3.2287                 2.8935                 2.8386
 Frc consts  --     3.6742                 3.6493                 3.7367
 IR Inten    --   109.9257                 2.1632                54.0801

                    28                     29                     30
                     A                      A                      A
 Frequencies --  1562.2687              2131.3679              3217.1610
 Red. masses --     4.6213                13.8572                 1.0902
 Frc consts  --     6.6454                37.0887                 6.6482
 IR Inten    --    29.6540               565.2502                 1.0161

                    31                     32                     33
                     A                      A                      A
 Frequencies --  3228.6545              3243.5435              3269.0995
 Red. masses --     1.0960                 1.0958                 1.0968
 Frc consts  --     6.7313                 6.7923                 6.9060
 IR Inten    --    20.0472                50.3522                64.1695

 - Thermochemistry -
 -------------------
 Temperature   298.150 Kelvin.  Pressure   1.00000 Atm.
 Atom     1 has atomic number  6 and mass  12.00000

 Molecular mass:   122.03544 amu.
 Principal axes and moments of inertia in atomic units:
                           1         2         3
     Eigenvalues --   514.187341440.883371955.07066
           X            0.99992   0.01259   0.00000
           Y           -0.01259   0.99992   0.00001
           Z            0.00000  -0.00001   1.00000
 This molecule is an asymmetric top.
 Rotational symmetry number  1.
 Warning -- assumption of classical behavior for rotation
           may cause significant error
 Rotational temperatures (Kelvin)      0.16845     0.06011     0.04430
 Rotational constants (GHZ):           3.50989     1.25252     0.92311
 Zero-point vibrational energy     230719.2 (Joules/Mol)
                                   55.14322 (Kcal/Mol)
 Warning -- explicit consideration of  11 degrees of freedom as
           vibrations may cause significant error
 Vibrational temperatures:    188.28   224.34   231.29   315.24   544.03
          (Kelvin)            621.79   653.67   718.24   780.04   811.30
                              890.83  1032.30  1043.73  1154.11  1258.51
                             1358.78  1400.15  1413.01  1595.74  1660.99
                             1725.98  1849.55  1890.42  1922.09  1999.57
                             2105.03  2150.59  2247.75  3066.56  4628.77
                             4645.31  4666.73  4703.50

 Zero-point correction=                           0.087876 (Hartree/Particle)
 Thermal correction to Energy=                    0.095384
 Thermal correction to Enthalpy=                  0.096328
 Thermal correction to Gibbs Free Energy=         0.054677
 Sum of electronic and zero-point Energies=           -431.935697
 Sum of electronic and thermal Energies=              -431.928189
 Sum of electronic and thermal Enthalpies=            -431.927245
 Sum of electronic and thermal Free Energies=         -431.968896

                     E (Thermal)             CV                S
                      KCal/Mol        Cal/Mol-Kelvin    Cal/Mol-Kelvin
 Total                   59.854             27.748             87.661
 Electronic               0.000              0.000              2.183
 Translational            0.889              2.981             40.312
 Rotational               0.889              2.981             28.762
 Vibrational             58.077             21.787             16.404
 Vibration     1          0.612              1.922              2.933
 Vibration     2          0.620              1.896              2.599
 Vibration     3          0.622              1.890              2.541
 Vibration     4          0.647              1.812              1.966
 Vibration     5          0.748              1.517              1.047
 Vibration     6          0.793              1.400              0.852
 Vibration     7          0.813              1.351              0.783
 Vibration     8          0.855              1.252              0.660
 Vibration     9          0.897              1.157              0.561
 Vibration    10          0.920              1.109              0.516
 Vibration    11          0.979              0.991              0.418

 Optimization completed.
    -- Stationary point found.
 Normal termination of Gaussian 09 at Fri Jan 21 03:19:37 2005.
