 Gaussian 09, Revision B.01,
 Gaussian 09:  EM64L-G09RevB.01 12-Aug-2010

 -------------------------------------------------
 #p Temperature=298.15 opt freq UB3LYP/aug-cc-pVDZ
 -------------------------------------------------

 ---------------------------------------------
 N-O-Pyridine-4-N2+-UB3LYP-aug-cc-pVDZ-Singlet
 ---------------------------------------------
 Symbolic Z-matrix:
 Charge =  1 Multiplicity = 1

 SCF Done:  E(UB3LYP) =  -432.071048513     A.U. after   18 cycles
 SCF Done:  E(UB3LYP) =  -432.086142997     A.U. after   16 cycles
 SCF Done:  E(UB3LYP) =  -432.088022485     A.U. after   13 cycles
 SCF Done:  E(UB3LYP) =  -432.088182495     A.U. after   11 cycles
 SCF Done:  E(UB3LYP) =  -432.088194090     A.U. after   21 cycles
 Optimization completed.
    -- Stationary point found.
 Normal termination of Gaussian 09 at Tue Mar  6 07:17:08 2018.

 ----------------------------------------------------------------------
 #P Geom=AllCheck Guess=TCheck SCRF=Check GenChk UB3LYP/Aug-CC-pVDZ Fre
 q
 ----------------------------------------------------------------------

 N-O-Pyridine-4-N2+-UB3LYP-aug-cc-pVDZ-Singlet
 ---------------------------------------------
 Redundant internal coordinates taken from checkpoint file:
 N-O-Pyridine-4-N2+-UB3LYP-aug-cc-pVDZ-Singlet.chk
 Charge =  1 Multiplicity = 1

                         Standard orientation:
 ---------------------------------------------------------------------
 Center     Atomic      Atomic             Coordinates (Angstroms)
 Number     Number       Type             X           Y           Z
 ---------------------------------------------------------------------
      1          6           0        1.059674    1.207321    0.000026
      2          6           0       -0.308591    1.233511    0.000003
      3          6           0       -1.004059    0.000004    0.000015
      4          6           0       -0.308596   -1.233492    0.000012
      5          6           0        1.059670   -1.207321    0.000014
      6          1           0        1.696921    2.088090   -0.000015
      7          1           0       -0.833503    2.187501    0.000005
      8          7           0       -2.367524    0.000021    0.000016
      9          7           0       -3.486825   -0.000021   -0.000057
     10          1           0        1.696939   -2.088112   -0.000001
     11          1           0       -0.833553   -2.187500    0.000001
     12          7           0        1.755278   -0.000011    0.000095
     13          8           0        2.997263   -0.000004   -0.000100
 ---------------------------------------------------------------------

 SCF Done:  E(UB3LYP) =  -432.088194090     A.U. after    1 cycles

 The electronic state is 1-A.
 Alpha  occ. eigenvalues --  -19.35219 -14.72889 -14.69979 -14.68989 -10.49056
 Alpha  occ. eigenvalues --  -10.44071 -10.44068 -10.43901 -10.43900  -1.38041
 Alpha  occ. eigenvalues --   -1.34539  -1.13638  -1.08052  -1.00568  -0.94808
 Alpha  occ. eigenvalues --   -0.88762  -0.80960  -0.76689  -0.73558  -0.71946
 Alpha  occ. eigenvalues --   -0.69844  -0.69180  -0.68375  -0.67548  -0.66128
 Alpha  occ. eigenvalues --   -0.63546  -0.59919  -0.56722  -0.49521  -0.46720
 Alpha  occ. eigenvalues --   -0.43915
 Alpha virt. eigenvalues --   -0.31169  -0.28757  -0.23647  -0.21502  -0.16051
 Alpha virt. eigenvalues --   -0.12615  -0.12061  -0.11731  -0.10213  -0.09649
 Alpha virt. eigenvalues --   -0.08774  -0.08471  -0.06829  -0.06146  -0.05093

  Beta  occ. eigenvalues --  -19.35219 -14.72889 -14.69979 -14.68989 -10.49056
  Beta  occ. eigenvalues --  -10.44071 -10.44068 -10.43901 -10.43900  -1.38041
  Beta  occ. eigenvalues --   -1.34539  -1.13638  -1.08052  -1.00568  -0.94808
  Beta  occ. eigenvalues --   -0.88762  -0.80960  -0.76689  -0.73558  -0.71946
  Beta  occ. eigenvalues --   -0.69844  -0.69180  -0.68375  -0.67548  -0.66128
  Beta  occ. eigenvalues --   -0.63546  -0.59919  -0.56722  -0.49521  -0.46720
  Beta  occ. eigenvalues --   -0.43915
  Beta virt. eigenvalues --   -0.31169  -0.28757  -0.23647  -0.21502  -0.16051
  Beta virt. eigenvalues --   -0.12615  -0.12061  -0.11731  -0.10213  -0.09649
  Beta virt. eigenvalues --   -0.08774  -0.08471  -0.06829  -0.06146  -0.05093

 Mulliken atomic charges:
              1
     1  C    0.221822
     2  C    1.697613
     3  C    0.263203
     4  C    1.697493
     5  C    0.221719
     6  H   -0.560108
     7  H   -0.708942
     8  N    0.468637
     9  N   -0.609683
    10  H   -0.560048
    11  H   -0.708865
    12  N    0.195406
    13  O   -0.618249
 Sum of Mulliken atomic charges =   1.00000

 Dipole moment (field-independent basis, Debye):
    X=             -4.4353    Y=              0.0000    Z=              0.0002  Tot=              4.4353
 Quadrupole moment (field-independent basis, Debye-Ang):
   XX=            -37.9360   YY=            -33.4453   ZZ=            -49.2194
   XY=             -0.0001   XZ=              0.0005   YZ=              0.0000

  Exact polarizability: 164.130   0.000  74.927   0.000   0.000  41.718
 Approx polarizability: 437.358   0.000 121.754  -0.002   0.000  64.592

                     1                      2                      3
                     A                      A                      A
 Frequencies --   102.4961               167.2282               247.3651
 Red. masses --    10.0817                 8.7289                 7.0411
 Frc consts  --     0.0624                 0.1438                 0.2538
 IR Inten    --     4.1436                 3.3533                 2.6460

                     4                      5                      6
                     A                      A                      A
 Frequencies --   411.3942               418.1994               482.3159
 Red. masses --     3.0328                12.0103                 8.6477
 Frc consts  --     0.3024                 1.2376                 1.1853
 IR Inten    --     0.0000                14.6519                 9.1458

                     7                      8                      9
                     A                      A                      A
 Frequencies --   483.8534               522.7233               545.7764
 Red. masses --     4.9677                 3.9875                 6.7235
 Frc consts  --     0.6852                 0.6419                 1.1800
 IR Inten    --     1.5283                17.7788                 0.5250

                    10                     11                     12
                     A                      A                      A
 Frequencies --   664.9669               708.7490               744.8209
 Red. masses --     7.1445                 3.1640                 5.8811
 Frc consts  --     1.8613                 0.9364                 1.9223
 IR Inten    --     0.5226                 5.9669                10.6065

                    13                     14                     15
                     A                      A                      A
 Frequencies --   811.9198               851.1023               867.3257
 Red. masses --     1.2410                 6.0859                 1.8440
 Frc consts  --     0.4820                 2.5974                 0.8173
 IR Inten    --     0.0001                 3.0958                61.0317

                    16                     17                     18
                     A                      A                      A
 Frequencies --   963.0572               970.9211              1013.5737
 Red. masses --     1.2996                 1.3405                 3.0793
 Frc consts  --     0.7102                 0.7446                 1.8639
 IR Inten    --     0.0010                 0.0000                21.0657

                    19                     20                     21
                     A                      A                      A
 Frequencies --  1115.8751              1163.5063              1220.0999
 Red. masses --     1.4119                 1.5950                 1.9768
 Frc consts  --     1.0358                 1.2722                 1.7338
 IR Inten    --     9.8419               244.3872                41.8824

                    22                     23                     24
                     A                      A                      A
 Frequencies --  1293.9913              1320.6002              1421.2344
 Red. masses --     4.1430                 1.3018                 2.5095
 Frc consts  --     4.0873                 1.3377                 2.9866
 IR Inten    --     2.0488                 0.5647                90.7629

                    25                     26                     27
                     A                      A                      A
 Frequencies --  1495.1926              1510.6236              1549.7281
 Red. masses --     4.8579                 4.8257                 5.7195
 Frc consts  --     6.3988                 6.4881                 8.0932
 IR Inten    --    13.2175               145.3638                 5.3214

                    28                     29                     30
                     A                      A                      A
 Frequencies --  1651.8775              2297.9810              3220.8321
 Red. masses --     5.5602                13.9298                 1.0942
 Frc consts  --     8.9392                43.3399                 6.6879
 IR Inten    --   271.5231               538.7219                11.6473

                    31                     32                     33
                     A                      A                      A
 Frequencies --  3221.3310              3249.6903              3250.7061
 Red. masses --     1.0935                 1.0976                 1.0994
 Frc consts  --     6.6855                 6.8293                 6.8450
 IR Inten    --    12.0201                43.0600                14.9297

 - Thermochemistry -
 -------------------
 Temperature   298.150 Kelvin.  Pressure   1.00000 Atm.
 Atom     1 has atomic number  6 and mass  12.00000

 Molecular mass:   122.03544 amu.
 Principal axes and moments of inertia in atomic units:
                           1         2         3
     Eigenvalues --   321.157941728.702942049.86087
           X            1.00000   0.00000   0.00000
           Y            0.00000   1.00000   0.00000
           Z            0.00000   0.00000   1.00000
 This molecule is an asymmetric top.
 Rotational symmetry number  1.
 Rotational temperatures (Kelvin)      0.26969     0.05010     0.04225
 Rotational constants (GHZ):           5.61948     1.04399     0.88042
 Zero-point vibrational energy     239020.2 (Joules/Mol)
                                   57.12720 (Kcal/Mol)
 Warning -- explicit consideration of   9 degrees of freedom as
           vibrations may cause significant error
 Vibrational temperatures:    147.47   240.60   355.90   591.90   601.69
          (Kelvin)            693.94   696.16   752.08   785.25   956.74
                             1019.73  1071.63  1168.17  1224.54  1247.89
                             1385.62  1396.94  1458.30  1605.49  1674.02
                             1755.45  1861.76  1900.05  2044.84  2151.25
                             2173.45  2229.71  2376.68  3306.28  4634.05
                             4634.77  4675.57  4677.04

 Zero-point correction=                           0.091038 (Hartree/Particle)
 Thermal correction to Energy=                    0.097925
 Thermal correction to Enthalpy=                  0.098869
 Thermal correction to Gibbs Free Energy=         0.059518
 Sum of electronic and zero-point Energies=           -431.997156
 Sum of electronic and thermal Energies=              -431.990269
 Sum of electronic and thermal Enthalpies=            -431.989325
 Sum of electronic and thermal Free Energies=         -432.028676

                     E (Thermal)             CV                S
                      KCal/Mol        Cal/Mol-Kelvin    Cal/Mol-Kelvin
 Total                   61.449             26.090             82.821
 Electronic               0.000              0.000              0.000
 Translational            0.889              2.981             40.312
 Rotational               0.889              2.981             28.522
 Vibrational             59.671             20.129             13.988
 Vibration     1          0.605              1.947              3.406
 Vibration     2          0.624              1.883              2.466
 Vibration     3          0.661              1.767              1.749
 Vibration     4          0.775              1.445              0.922
 Vibration     5          0.781              1.431              0.898
 Vibration     6          0.839              1.289              0.704
 Vibration     7          0.840              1.286              0.700
 Vibration     8          0.878              1.200              0.604
 Vibration     9          0.901              1.149              0.553

 Optimization completed.
    -- Stationary point found.
 Normal termination of Gaussian 09 at Tue Mar  6 07:26:33 2018.
