 Gaussian 09, Revision B.01,
 Gaussian 09:  EM64L-G09RevB.01 12-Aug-2010

 -------------------------------------------------
 #p Temperature=298.15 opt freq UB3LYP/aug-cc-pVDZ
 -------------------------------------------------

 ------------------------------------------
 N-O-Pyridine-4+-UB3LYP-aug-cc-pVDZ-Triplet
 ------------------------------------------
 Symbolic Z-matrix:
 Charge =  1 Multiplicity = 3

 SCF Done:  E(UB3LYP) =  -322.489843359     A.U. after   17 cycles
 SCF Done:  E(UB3LYP) =  -322.497580986     A.U. after   17 cycles
 SCF Done:  E(UB3LYP) =  -322.498331483     A.U. after   15 cycles
 SCF Done:  E(UB3LYP) =  -322.498414169     A.U. after   22 cycles
 SCF Done:  E(UB3LYP) =  -322.498417986     A.U. after   18 cycles
 Optimization completed.
    -- Stationary point found.
 Normal termination of Gaussian 09 at Fri Jan 21 04:27:50 2005.

 ----------------------------------------------------------------------
 #P Geom=AllCheck Guess=TCheck SCRF=Check GenChk UB3LYP/Aug-CC-pVDZ Fre
 q
 ----------------------------------------------------------------------

 N-O-Pyridine-4+-UB3LYP-aug-cc-pVDZ-Triplet
 ------------------------------------------
 Redundant internal coordinates taken from checkpoint file:
 N-O-Pyridine-4+-UB3LYP-aug-cc-pVDZ-Triplet.chk
 Charge =  1 Multiplicity = 3

                         Standard orientation:
 ---------------------------------------------------------------------
 Center     Atomic      Atomic             Coordinates (Angstroms)
 Number     Number       Type             X           Y           Z
 ---------------------------------------------------------------------
      1          6           0        0.224281    1.220907    0.000006
      2          6           0       -1.155213    1.242666   -0.000009
      3          6           0       -1.778885   -0.000002    0.000003
      4          6           0       -1.155216   -1.242656    0.000004
      5          6           0        0.224280   -1.220909   -0.000010
      6          1           0        0.882527    2.088756    0.000005
      7          1           0       -1.700294    2.186973   -0.000006
      8          1           0        0.882550   -2.088769   -0.000005
      9          1           0       -1.700334   -2.186971    0.000012
     10          7           0        0.881763   -0.000007    0.000005
     11          8           0        2.163466    0.000003   -0.000001
 ---------------------------------------------------------------------

 SCF Done:  E(UB3LYP) =  -322.498417986     A.U. after    1 cycles

 The electronic state is 3-A.
 Alpha  occ. eigenvalues --  -19.44469 -14.72216 -10.48788 -10.48785 -10.48018
 Alpha  occ. eigenvalues --  -10.44565 -10.44564  -1.39156  -1.16053  -1.03578
 Alpha  occ. eigenvalues --   -1.03556  -0.90724  -0.86437  -0.77231  -0.75417
 Alpha  occ. eigenvalues --   -0.73869  -0.71167  -0.69141  -0.68571  -0.62527
 Alpha  occ. eigenvalues --   -0.60392  -0.54082  -0.51754  -0.51138  -0.49120
 Alpha virt. eigenvalues --   -0.29506  -0.25977  -0.15034  -0.12810  -0.12694
 Alpha virt. eigenvalues --   -0.12335  -0.11444  -0.09926  -0.09160  -0.08656
 Alpha virt. eigenvalues --   -0.07048  -0.06511  -0.05591  -0.05435  -0.04945

  Beta  occ. eigenvalues --  -19.42589 -14.72216 -10.48543 -10.48540 -10.46087
  Beta  occ. eigenvalues --  -10.44623 -10.44621  -1.36882  -1.14073  -1.03070
  Beta  occ. eigenvalues --   -1.01053  -0.90303  -0.84597  -0.75423  -0.74544
  Beta  occ. eigenvalues --   -0.70395  -0.70174  -0.68212  -0.67402  -0.61792
  Beta  occ. eigenvalues --   -0.56071  -0.52279  -0.51397
  Beta virt. eigenvalues --   -0.38164  -0.31669  -0.25783  -0.25390  -0.14922
  Beta virt. eigenvalues --   -0.12768  -0.12373  -0.11087  -0.11060  -0.09445
  Beta virt. eigenvalues --   -0.09104  -0.08341  -0.06501  -0.06421  -0.05551

 Mulliken atomic charges:
              1
     1  C    0.584749
     2  C    1.383058
     3  C   -0.649795
     4  C    1.382965
     5  C    0.584691
     6  H   -0.521658
     7  H   -0.487554
     8  H   -0.521610
     9  H   -0.487497
    10  N    0.211982
    11  O   -0.479331
 Sum of Mulliken atomic charges =   1.00000

 Dipole moment (field-independent basis, Debye):
    X=             -2.1619    Y=              0.0000    Z=              0.0000  Tot=              2.1619
 Quadrupole moment (field-independent basis, Debye-Ang):
   XX=            -31.4593   YY=            -21.4104   ZZ=            -38.3098
   XY=              0.0000   XZ=              0.0000   YZ=              0.0000

  Exact polarizability:  83.265   0.000  70.126   0.000   0.000  34.709
 Approx polarizability: 156.320   0.000 115.265   0.000   0.000  52.761

                     1                      2                      3
                     A                      A                      A
 Frequencies --   227.0950               362.5810               470.8819
 Red. masses --     7.6425                 2.7422                 6.5110
 Frc consts  --     0.2322                 0.2124                 0.8506
 IR Inten    --     6.2626                 0.0000                 6.5300

                     4                      5                      6
                     A                      A                      A
 Frequencies --   481.8298               541.9115               613.6847
 Red. masses --     3.4947                 9.5028                 7.3439
 Frc consts  --     0.4780                 1.6442                 1.6295
 IR Inten    --     9.7737                 0.0012                 2.7543

                     7                      8                      9
                     A                      A                      A
 Frequencies --   693.0236               816.8888               822.0556
 Red. masses --     3.5491                 1.2402                 5.2289
 Frc consts  --     1.0043                 0.4876                 2.0819
 IR Inten    --    11.2690                 0.0014                 7.5468

                    10                     11                     12
                     A                      A                      A
 Frequencies --   827.7862               979.5550               981.8940
 Red. masses --     1.4555                 1.3313                 1.4020
 Frc consts  --     0.5876                 0.7526                 0.7964
 IR Inten    --    59.0239                 0.9209                 0.0003

                    13                     14                     15
                     A                      A                      A
 Frequencies --   992.9888              1031.8806              1104.9081
 Red. masses --     7.4554                 2.2477                 1.3011
 Frc consts  --     4.3312                 1.4101                 0.9358
 IR Inten    --     0.8756                 0.0007                 3.0158

                    16                     17                     18
                     A                      A                      A
 Frequencies --  1159.2086              1278.1682              1294.3495
 Red. masses --     1.2719                 5.3346                 1.3123
 Frc consts  --     1.0070                 5.1348                 1.2954
 IR Inten    --     3.1032                16.6146                 0.9798

                    19                     20                     21
                     A                      A                      A
 Frequencies --  1311.3972              1429.7750              1455.8931
 Red. masses --     6.5121                 1.8790                 3.3060
 Frc consts  --     6.5984                 2.2631                 4.1287
 IR Inten    --    11.1276                30.6625                50.3325

                    22                     23                     24
                     A                      A                      A
 Frequencies --  1535.6802              1584.1156              3206.2068
 Red. masses --     7.7156                 5.0563                 1.0908
 Frc consts  --    10.7207                 7.4758                 6.6067
 IR Inten    --    18.4016                60.5490                23.6097

                    25                     26                     27
                     A                      A                      A
 Frequencies --  3208.0488              3235.3815              3236.5216
 Red. masses --     1.0938                 1.0979                 1.0999
 Frc consts  --     6.6323                 6.7710                 6.7883
 IR Inten    --    26.6862                57.4355                11.8449

 - Thermochemistry -
 -------------------
 Temperature   298.150 Kelvin.  Pressure   1.00000 Atm.
 Atom     1 has atomic number  6 and mass  12.00000

 Molecular mass:    94.02929 amu.
 Principal axes and moments of inertia in atomic units:
                           1         2         3
     Eigenvalues --   325.93263 586.83859 912.77122
           X            1.00000   0.00000   0.00000
           Y            0.00000   1.00000   0.00000
           Z            0.00000   0.00000   1.00000
 This molecule is an asymmetric top.
 Rotational symmetry number  1.
 Rotational temperatures (Kelvin)      0.26574     0.14759     0.09489
 Rotational constants (GHZ):           5.53716     3.07536     1.97721
 Zero-point vibrational energy     208650.9 (Joules/Mol)
                                   49.86877 (Kcal/Mol)
 Warning -- explicit consideration of   6 degrees of freedom as
           vibrations may cause significant error
 Vibrational temperatures:    326.74   521.67   677.49   693.24   779.69
          (Kelvin)            882.95   997.11  1175.32  1182.75  1191.00
                             1409.36  1412.72  1428.69  1484.64  1589.71
                             1667.84  1839.00  1862.28  1886.81  2057.12
                             2094.70  2209.50  2279.19  4613.01  4615.66
                             4654.99  4656.63

 Zero-point correction=                           0.079471 (Hartree/Particle)
 Thermal correction to Energy=                    0.084583
 Thermal correction to Enthalpy=                  0.085527
 Thermal correction to Gibbs Free Energy=         0.049738
 Sum of electronic and zero-point Energies=           -322.418947
 Sum of electronic and thermal Energies=              -322.413835
 Sum of electronic and thermal Enthalpies=            -322.412891
 Sum of electronic and thermal Free Energies=         -322.448680

                     E (Thermal)             CV                S
                      KCal/Mol        Cal/Mol-Kelvin    Cal/Mol-Kelvin
 Total                   53.077             19.556             75.325
 Electronic               0.000              0.000              2.183
 Translational            0.889              2.981             39.535
 Rotational               0.889              2.981             26.659
 Vibrational             51.299             13.594              6.948
 Vibration     1          0.651              1.800              1.902
 Vibration     2          0.736              1.549              1.111
 Vibration     3          0.828              1.315              0.735
 Vibration     4          0.838              1.290              0.705
 Vibration     5          0.897              1.157              0.561
 Vibration     6          0.973              1.003              0.427

 Optimization completed.
    -- Stationary point found.
 Normal termination of Gaussian 09 at Fri Jan 21 04:32:14 2005.
