 Gaussian 09, Revision B.01,
 Gaussian 09:  EM64L-G09RevB.01 12-Aug-2010

 -------------------------------------------------
 #p Temperature=298.15 opt freq UB3LYP/aug-cc-pVDZ
 -------------------------------------------------

 ----------------------------------------
 N-O-Pyridine-3-UB3LYP-aug-cc-pVDZ-Duplet
 ----------------------------------------
 Symbolic Z-matrix:
 Charge =  0 Multiplicity = 2

 SCF Done:  E(UB3LYP) =  -322.793697484     A.U. after   19 cycles
 SCF Done:  E(UB3LYP) =  -322.804244065     A.U. after   19 cycles
 SCF Done:  E(UB3LYP) =  -322.805185910     A.U. after   16 cycles
 SCF Done:  E(UB3LYP) =  -322.805276587     A.U. after   15 cycles
 SCF Done:  E(UB3LYP) =  -322.805279178     A.U. after   20 cycles
 SCF Done:  E(UB3LYP) =  -322.805281137     A.U. after   11 cycles
 Optimization completed.
    -- Stationary point found.
 Normal termination of Gaussian 09 at Tue Mar  6 11:13:08 2018.

 ----------------------------------------------------------------------
 #P Geom=AllCheck Guess=TCheck SCRF=Check GenChk UB3LYP/Aug-CC-pVDZ Fre
 q
 ----------------------------------------------------------------------

 N-O-Pyridine-3-UB3LYP-aug-cc-pVDZ-Duplet
 ----------------------------------------
 Redundant internal coordinates taken from checkpoint file:
 N-O-Pyridine-3-UB3LYP-aug-cc-pVDZ-Duplet.chk
 Charge =  0 Multiplicity = 2

                         Standard orientation:
 ---------------------------------------------------------------------
 Center     Atomic      Atomic             Coordinates (Angstroms)
 Number     Number       Type             X           Y           Z
 ---------------------------------------------------------------------
      1          6           0        0.358550   -1.218827    0.000072
      2          6           0       -1.007243   -1.276989    0.000110
      3          6           0       -1.871623   -0.201757   -0.000096
      4          6           0       -1.227925    1.047843    0.000128
      5          1           0        1.050616   -2.055757    0.000190
      6          1           0       -1.809958    1.970184    0.000104
      7          1           0       -2.955809   -0.295120   -0.000039
      8          7           0        0.960819    0.031142   -0.000421
      9          6           0        0.155612    1.145391   -0.000047
     10          1           0        0.704134    2.082386    0.000416
     11          8           0        2.230132    0.138293    0.000159
 ---------------------------------------------------------------------

 SCF Done:  E(UB3LYP) =  -322.805281137     A.U. after    1 cycles

 The electronic state is 2-A.
 Alpha  occ. eigenvalues --  -19.13785 -14.49753 -10.25348 -10.25059 -10.24988
 Alpha  occ. eigenvalues --  -10.23807 -10.23027  -1.12854  -0.92290  -0.81606
 Alpha  occ. eigenvalues --   -0.80513  -0.67765  -0.65561  -0.55306  -0.53355
 Alpha  occ. eigenvalues --   -0.49266  -0.48775  -0.47618  -0.44240  -0.41751
 Alpha  occ. eigenvalues --   -0.36776  -0.30193  -0.29965  -0.26160  -0.23756
 Alpha virt. eigenvalues --   -0.06673  -0.04772  -0.01518   0.00560   0.01011
 Alpha virt. eigenvalues --    0.03016   0.03755   0.04234   0.04867   0.07060
 Alpha virt. eigenvalues --    0.07700   0.07920   0.08436   0.08627   0.09351

  Beta  occ. eigenvalues --  -19.13661 -14.49592 -10.25396 -10.25047 -10.23672
  Beta  occ. eigenvalues --  -10.23535 -10.23050  -1.12585  -0.91654  -0.81078
  Beta  occ. eigenvalues --   -0.79596  -0.67011  -0.64526  -0.54857  -0.52741
  Beta  occ. eigenvalues --   -0.48653  -0.48571  -0.47247  -0.43271  -0.41206
  Beta  occ. eigenvalues --   -0.36249  -0.29743  -0.27046  -0.23675
  Beta virt. eigenvalues --   -0.12712  -0.06624  -0.03976  -0.01482   0.00722
  Beta virt. eigenvalues --    0.01042   0.03048   0.03849   0.04314   0.05257
  Beta virt. eigenvalues --    0.07202   0.07748   0.07947   0.08564   0.08775

 Mulliken atomic charges:
              1
     1  C    0.891071
     2  C   -0.460159
     3  C    0.931414
     4  C    1.119004
     5  H   -0.569823
     6  H   -0.695547
     7  H   -0.567774
     8  N    0.228282
     9  C    0.571992
    10  H   -0.639032
    11  O   -0.809427
 Sum of Mulliken atomic charges =   0.00000

 Dipole moment (field-independent basis, Debye):
    X=             -3.6879    Y=              0.5732    Z=              0.0001  Tot=              3.7322
 Quadrupole moment (field-independent basis, Debye-Ang):
   XX=            -45.7288   YY=            -35.3769   ZZ=            -42.5398
   XY=             -2.8733   XZ=             -0.0003   YZ=              0.0006

  Exact polarizability: 103.056   1.266  76.790   0.001  -0.001  42.057
 Approx polarizability: 207.763   8.458 130.562   0.004  -0.002  62.822

                     1                      2                      3
                     A                      A                      A
 Frequencies --   207.7835               425.7596               485.9875
 Red. masses --     4.9780                 3.1797                 6.7345
 Frc consts  --     0.1266                 0.3396                 0.9371
 IR Inten    --     3.1771                 2.6756                 7.7707

                     4                      5                      6
                     A                      A                      A
 Frequencies --   528.7044               537.8073               637.2632
 Red. masses --     4.5568                 7.9891                 7.1827
 Frc consts  --     0.7505                 1.3614                 1.7186
 IR Inten    --     0.0199                 9.5101                 4.4303

                     7                      8                      9
                     A                      A                      A
 Frequencies --   656.9520               734.9267               840.2993
 Red. masses --     1.9991                 1.3942                 1.4553
 Frc consts  --     0.5083                 0.4437                 0.6054
 IR Inten    --    30.0949                37.7000                11.2352

                    10                     11                     12
                     A                      A                      A
 Frequencies --   845.1993               875.1405               960.2446
 Red. masses --     7.7463                 1.5530                 1.3410
 Frc consts  --     3.2603                 0.7008                 0.7285
 IR Inten    --     7.4106                11.0861                 0.2582

                    13                     14                     15
                     A                      A                      A
 Frequencies --   998.7540              1066.8940              1071.1695
 Red. masses --     5.1721                 2.0188                 1.7404
 Frc consts  --     3.0397                 1.3539                 1.1765
 IR Inten    --    32.8234                 6.2290                 7.1517

                    16                     17                     18
                     A                      A                      A
 Frequencies --  1157.4932              1225.6189              1271.3245
 Red. masses --     1.1320                 3.6625                 1.4902
 Frc consts  --     0.8935                 3.2414                 1.4191
 IR Inten    --    14.8111                 0.8082                31.0940

                    19                     20                     21
                     A                      A                      A
 Frequencies --  1339.7380              1452.6142              1465.1549
 Red. masses --     3.1631                 2.6075                 2.9445
 Frc consts  --     3.3450                 3.2417                 3.7242
 IR Inten    --   148.1803               152.3723                34.5269

                    22                     23                     24
                     A                      A                      A
 Frequencies --  1528.1019              1644.7451              3189.7355
 Red. masses --     6.4644                 6.7997                 1.0885
 Frc consts  --     8.8937                10.8377                 6.5250
 IR Inten    --     3.8119                50.3184                 2.2174

                    25                     26                     27
                     A                      A                      A
 Frequencies --  3214.2764              3246.2819              3254.4721
 Red. masses --     1.0937                 1.0926                 1.0947
 Frc consts  --     6.6577                 6.7841                 6.8314
 IR Inten    --     0.3291                 4.6816                 0.5203

 - Thermochemistry -
 -------------------
 Temperature   298.150 Kelvin.  Pressure   1.00000 Atm.
 Atom     1 has atomic number  6 and mass  12.00000

 Molecular mass:    94.02929 amu.
 Principal axes and moments of inertia in atomic units:
                           1         2         3
     Eigenvalues --   284.27362 644.05938 928.33297
           X            0.99943  -0.03389   0.00000
           Y            0.03389   0.99943   0.00001
           Z            0.00000  -0.00001   1.00000
 This molecule is an asymmetric top.
 Rotational symmetry number  1.
 Rotational temperatures (Kelvin)      0.30468     0.13448     0.09330
 Rotational constants (GHZ):           6.34861     2.80213     1.94407
 Zero-point vibrational energy     208523.7 (Joules/Mol)
                                   49.83836 (Kcal/Mol)
 Warning -- explicit consideration of   5 degrees of freedom as
           vibrations may cause significant error
 Vibrational temperatures:    298.95   612.57   699.23   760.69   773.78
          (Kelvin)            916.88   945.21  1057.39  1209.00  1216.05
                             1259.13  1381.58  1436.98  1535.02  1541.17
                             1665.37  1763.39  1829.15  1927.58  2089.99
                             2108.03  2198.60  2366.42  4589.31  4624.62
                             4670.67  4682.45

 Zero-point correction=                           0.079422 (Hartree/Particle)
 Thermal correction to Energy=                    0.084501
 Thermal correction to Enthalpy=                  0.085445
 Thermal correction to Gibbs Free Energy=         0.050101
 Sum of electronic and zero-point Energies=           -322.725859
 Sum of electronic and thermal Energies=              -322.720780
 Sum of electronic and thermal Enthalpies=            -322.719836
 Sum of electronic and thermal Free Energies=         -322.755180

                     E (Thermal)             CV                S
                      KCal/Mol        Cal/Mol-Kelvin    Cal/Mol-Kelvin
 Total                   53.025             19.589             74.388
 Electronic               0.000              0.000              1.377
 Translational            0.889              2.981             39.535
 Rotational               0.889              2.981             26.633
 Vibrational             51.248             13.627              6.843
 Vibration     1          0.641              1.829              2.063
 Vibration     2          0.788              1.414              0.873
 Vibration     3          0.842              1.281              0.694
 Vibration     4          0.884              1.186              0.590
 Vibration     5          0.893              1.166              0.570

 Optimization completed.
    -- Stationary point found.
 Normal termination of Gaussian 09 at Tue Mar  6 11:17:50 2018.
