 Gaussian 09, Revision B.01,
 Gaussian 09:  EM64L-G09RevB.01 12-Aug-2010

 -------------------------------------------------
 #p Temperature=298.15 opt freq UB3LYP/aug-cc-pVDZ
 -------------------------------------------------

 ---------------------------------------------
 N-O-Pyridine-4-N2+-UB3LYP-aug-cc-pVDZ-Triplet
 ---------------------------------------------
 Symbolic Z-matrix:
 Charge =  1 Multiplicity = 3

 SCF Done:  E(UB3LYP) =  -432.024421045     A.U. after   18 cycles
 SCF Done:  E(UB3LYP) =  -432.032502727     A.U. after   19 cycles
 SCF Done:  E(UB3LYP) =  -432.033535375     A.U. after   15 cycles
 SCF Done:  E(UB3LYP) =  -432.033561671     A.U. after   14 cycles
 SCF Done:  E(UB3LYP) =  -432.033563325     A.U. after   12 cycles
 Optimization completed.
    -- Stationary point found.
 Normal termination of Gaussian 09 at Fri Jan 21 04:06:29 2005.

 ----------------------------------------------------------------------
 #P Geom=AllCheck Guess=TCheck SCRF=Check GenChk UB3LYP/Aug-CC-pVDZ Fre
 q
 ----------------------------------------------------------------------

 N-O-Pyridine-4-N2+-UB3LYP-aug-cc-pVDZ-Triplet
 ---------------------------------------------
 Redundant internal coordinates taken from checkpoint file:
 N-O-Pyridine-4-N2+-UB3LYP-aug-cc-pVDZ-Triplet.chk
 Charge =  1 Multiplicity = 3

                         Standard orientation:
 ---------------------------------------------------------------------
 Center     Atomic      Atomic             Coordinates (Angstroms)
 Number     Number       Type             X           Y           Z
 ---------------------------------------------------------------------
      1          6           0       -1.055538   -1.217077   -0.000002
      2          6           0        0.306228   -1.250866    0.000022
      3          6           0        1.014602    0.000004    0.000016
      4          6           0        0.306228    1.250864    0.000030
      5          6           0       -1.055541    1.217075   -0.000015
      6          1           0       -1.699111   -2.094307   -0.000034
      7          1           0        0.837101   -2.200072    0.000031
      8          7           0        2.356036   -0.000007    0.000335
      9          7           0        3.498695    0.000005   -0.000304
     10          1           0       -1.699121    2.094313   -0.000036
     11          1           0        0.837102    2.200075    0.000049
     12          7           0       -1.727689    0.000002   -0.000021
     13          8           0       -3.032642   -0.000001   -0.000048
 ---------------------------------------------------------------------

 SCF Done:  E(UB3LYP) =  -432.033563325     A.U. after    1 cycles

 The electronic state is 3-A.
 Alpha  occ. eigenvalues --  -19.41287 -14.68420 -14.66955 -14.65802 -10.50661
 Alpha  occ. eigenvalues --  -10.46185 -10.46182 -10.42757 -10.42756  -1.34443
 Alpha  occ. eigenvalues --   -1.33862  -1.14069  -1.08884  -1.01297  -0.95319
 Alpha  occ. eigenvalues --   -0.88582  -0.81398  -0.75818  -0.73861  -0.71967
 Alpha  occ. eigenvalues --   -0.70398  -0.68786  -0.67538  -0.67231  -0.66104
 Alpha  occ. eigenvalues --   -0.64144  -0.59694  -0.58470  -0.51229  -0.50822
 Alpha  occ. eigenvalues --   -0.50602  -0.38084
 Alpha virt. eigenvalues --   -0.27148  -0.24284  -0.23513  -0.15444  -0.12422
 Alpha virt. eigenvalues --   -0.12231  -0.11891  -0.11089  -0.09730  -0.08956
 Alpha virt. eigenvalues --   -0.08825  -0.07005  -0.06221  -0.06132  -0.05209

  Beta  occ. eigenvalues --  -19.39235 -14.68392 -14.66438 -14.64773 -10.50278
  Beta  occ. eigenvalues --  -10.46039 -10.46036 -10.42657 -10.42655  -1.32781
  Beta  occ. eigenvalues --   -1.31435  -1.12450  -1.06800  -1.00707  -0.93930
  Beta  occ. eigenvalues --   -0.88203  -0.80850  -0.75463  -0.72179  -0.68857
  Beta  occ. eigenvalues --   -0.68193  -0.67013  -0.65876  -0.65790  -0.65265
  Beta  occ. eigenvalues --   -0.63345  -0.59396  -0.53348  -0.49285  -0.49120
  Beta virt. eigenvalues --   -0.37037  -0.27613  -0.26331  -0.23163  -0.19012
  Beta virt. eigenvalues --   -0.15299  -0.12400  -0.11992  -0.11746  -0.09571
  Beta virt. eigenvalues --   -0.09066  -0.08790  -0.08588  -0.06442  -0.06109

 Mulliken atomic charges:
              1
     1  C    0.205254
     2  C    1.779829
     3  C    0.181758
     4  C    1.779859
     5  C    0.205205
     6  H   -0.545735
     7  H   -0.711955
     8  N    0.383291
     9  N   -0.607802
    10  H   -0.545718
    11  H   -0.711943
    12  N    0.100370
    13  O   -0.512413
 Sum of Mulliken atomic charges =   1.00000

 Dipole moment (field-independent basis, Debye):
    X=              1.6468    Y=              0.0000    Z=              0.0002  Tot=              1.6468
 Quadrupole moment (field-independent basis, Debye-Ang):
   XX=            -38.2641   YY=            -33.5065   ZZ=            -49.2374
   XY=             -0.0001   XZ=              0.0008   YZ=              0.0000

  Exact polarizability: 161.682   0.000  76.817  -0.001   0.000  42.423
 Approx polarizability: 313.675   0.000 120.523  -0.004   0.000  64.961

                     1                      2                      3
                     A                      A                      A
 Frequencies --    93.1810               160.5205               172.6206
 Red. masses --     9.5975                 8.9459                11.5727
 Frc consts  --     0.0491                 0.1358                 0.2032
 IR Inten    --     4.2938                 3.5483                 0.2849

                     4                      5                      6
                     A                      A                      A
 Frequencies --   244.2630               398.8969               410.0990
 Red. masses --     7.5958                 3.0383                11.9632
 Frc consts  --     0.2670                 0.2848                 1.1854
 IR Inten    --     0.6906                 0.0000                 0.1051

                     7                      8                      9
                     A                      A                      A
 Frequencies --   413.8912               430.0820               546.8465
 Red. masses --     3.4542                 8.5006                 6.7927
 Frc consts  --     0.3486                 0.9264                 1.1968
 IR Inten    --    13.6259                 3.4102                 0.0217

                    10                     11                     12
                     A                      A                      A
 Frequencies --   653.6927               655.0940               732.9649
 Red. masses --     4.6443                 7.2701                 5.4890
 Frc consts  --     1.1693                 1.8382                 1.7375
 IR Inten    --     2.3034                 1.9760                 2.0860

                    13                     14                     15
                     A                      A                      A
 Frequencies --   788.5669               795.0788               826.3035
 Red. masses --     1.2342                 1.3891                 7.0081
 Frc consts  --     0.4522                 0.5174                 2.8192
 IR Inten    --     0.0004                77.5581                39.4742

                    16                     17                     18
                     A                      A                      A
 Frequencies --   962.0521               964.4910              1003.6338
 Red. masses --     1.2916                 1.3439                 2.8470
 Frc consts  --     0.7043                 0.7366                 1.6896
 IR Inten    --     0.9346                 0.0000                 2.4255

                    19                     20                     21
                     A                      A                      A
 Frequencies --  1115.0889              1180.9213              1250.5687
 Red. masses --     1.4044                 1.2366                 4.0189
 Frc consts  --     1.0289                 1.0161                 3.7031
 IR Inten    --     0.7195                81.9668                 2.3219

                    22                     23                     24
                     A                      A                      A
 Frequencies --  1276.3782              1304.9970              1318.6857
 Red. masses --     5.8904                 1.4751                 3.8892
 Frc consts  --     5.6539                 1.4801                 3.9847
 IR Inten    --    26.6561                14.8264                 2.1451

                    25                     26                     27
                     A                      A                      A
 Frequencies --  1422.7508              1449.9091              1526.4471
 Red. masses --     4.1689                 1.9849                 4.6343
 Frc consts  --     4.9720                 2.4585                 6.3621
 IR Inten    --    47.9547                 0.9611                40.9603

                    28                     29                     30
                     A                      A                      A
 Frequencies --  1670.7149              2093.8870              3230.5433
 Red. masses --     5.8761                13.9011                 1.0907
 Frc consts  --     9.6638                35.9092                 6.7065
 IR Inten    --   338.1370               326.4155                 4.7970

                    31                     32                     33
                     A                      A                      A
 Frequencies --  3230.9341              3246.8115              3248.2299
 Red. masses --     1.0928                 1.0997                 1.1014
 Frc consts  --     6.7214                 6.8302                 6.8470
 IR Inten    --    21.2359                50.6092                15.6519

 - Thermochemistry -
 -------------------
 Temperature   298.150 Kelvin.  Pressure   1.00000 Atm.
 Atom     1 has atomic number  6 and mass  12.00000

 Molecular mass:   122.03544 amu.
 Principal axes and moments of inertia in atomic units:
                           1         2         3
     Eigenvalues --   327.465971737.650522065.11647
           X            1.00000   0.00000   0.00000
           Y            0.00000   1.00000   0.00000
           Z            0.00000   0.00000   1.00000
 This molecule is an asymmetric top.
 Rotational symmetry number  1.
 Rotational temperatures (Kelvin)      0.26450     0.04985     0.04194
 Rotational constants (GHZ):           5.51123     1.03861     0.87392
 Zero-point vibrational energy     232190.1 (Joules/Mol)
                                   55.49475 (Kcal/Mol)
 Warning -- explicit consideration of   9 degrees of freedom as
           vibrations may cause significant error
 Vibrational temperatures:    134.07   230.95   248.36   351.44   573.92
          (Kelvin)            590.04   595.50   618.79   786.79   940.52
                              942.53  1054.57  1134.57  1143.94  1188.86
                             1384.18  1387.69  1444.00  1604.36  1699.08
                             1799.29  1836.42  1877.60  1897.29  2047.02
                             2086.09  2196.21  2403.78  3012.63  4648.03
                             4648.59  4671.43  4673.47

 Zero-point correction=                           0.088437 (Hartree/Particle)
 Thermal correction to Energy=                    0.095948
 Thermal correction to Enthalpy=                  0.096893
 Thermal correction to Gibbs Free Energy=         0.055191
 Sum of electronic and zero-point Energies=           -431.945127
 Sum of electronic and thermal Energies=              -431.937615
 Sum of electronic and thermal Enthalpies=            -431.936671
 Sum of electronic and thermal Free Energies=         -431.978372

                     E (Thermal)             CV                S
                      KCal/Mol        Cal/Mol-Kelvin    Cal/Mol-Kelvin
 Total                   60.209             27.530             87.769
 Electronic               0.000              0.000              2.183
 Translational            0.889              2.981             40.312
 Rotational               0.889              2.981             28.554
 Vibrational             58.431             21.568             16.720
 Vibration     1          0.602              1.954              3.592
 Vibration     2          0.622              1.891              2.544
 Vibration     3          0.626              1.876              2.407
 Vibration     4          0.660              1.772              1.772
 Vibration     5          0.765              1.472              0.967
 Vibration     6          0.774              1.448              0.926
 Vibration     7          0.777              1.440              0.913
 Vibration     8          0.791              1.405              0.858
 Vibration     9          0.902              1.147              0.551

 Optimization completed.
    -- Stationary point found.
 Normal termination of Gaussian 09 at Fri Jan 21 04:16:01 2005.
