 Gaussian 09, Revision B.01,
 Gaussian 09:  EM64L-G09RevB.01 12-Aug-2010

 -------------------------------------------------
 #p Temperature=298.15 opt freq UB3LYP/aug-cc-pVDZ
 -------------------------------------------------

 -----------------------------------------------------
 Continue/N-O-Pyridine-2-N2-UB3LYP-aug-cc-pVDZ-Doublet
 -----------------------------------------------------
 Symbolic Z-matrix:
 Charge =  0 Multiplicity = 2

 SCF Done:  E(UB3LYP) =  -432.255383440     A.U. after   22 cycles
 SCF Done:  E(UB3LYP) =  -432.309731712     A.U. after   21 cycles
 SCF Done:  E(UB3LYP) =  -432.325867271     A.U. after   22 cycles
 SCF Done:  E(UB3LYP) =  -432.327547408     A.U. after   25 cycles
 SCF Done:  E(UB3LYP) =  -432.327772904     A.U. after   17 cycles
 SCF Done:  E(UB3LYP) =  -432.327822722     A.U. after   22 cycles
 SCF Done:  E(UB3LYP) =  -432.327834255     A.U. after   17 cycles
 SCF Done:  E(UB3LYP) =  -432.327837082     A.U. after   14 cycles
 SCF Done:  E(UB3LYP) =  -432.327843626     A.U. after   15 cycles
 SCF Done:  E(UB3LYP) =  -432.327865451     A.U. after   19 cycles
 SCF Done:  E(UB3LYP) =  -432.338914123     A.U. after   19 cycles
 SCF Done:  E(UB3LYP) =  -432.339797885     A.U. after   19 cycles
 SCF Done:  E(UB3LYP) =  -432.340057713     A.U. after   19 cycles
 SCF Done:  E(UB3LYP) =  -432.340535904     A.U. after   18 cycles
 SCF Done:  E(UB3LYP) =  -432.340644092     A.U. after   18 cycles
 SCF Done:  E(UB3LYP) =  -432.340672420     A.U. after   23 cycles
 SCF Done:  E(UB3LYP) =  -432.340675611     A.U. after   14 cycles
 SCF Done:  E(UB3LYP) =  -432.340676379     A.U. after   13 cycles
 SCF Done:  E(UB3LYP) =  -432.340676590     A.U. after   12 cycles
 Optimization completed.
    -- Stationary point found.
 Normal termination of Gaussian 09 at Tue Feb 22 03:20:12 2005.

 ----------------------------------------------------------------------
 #P Geom=AllCheck Guess=TCheck SCRF=Check GenChk UB3LYP/Aug-CC-pVDZ Fre
 q
 ----------------------------------------------------------------------

 Continue/N-O-Pyridine-2-N2-UB3LYP-aug-cc-pVDZ-Doublet
 -----------------------------------------------------
 Redundant internal coordinates taken from checkpoint file:
 /home/ubuntu/g09/Gau-12562.chk
 Charge =  0 Multiplicity = 2

                         Standard orientation:
 ---------------------------------------------------------------------
 Center     Atomic      Atomic             Coordinates (Angstroms)
 Number     Number       Type             X           Y           Z
 ---------------------------------------------------------------------
      1          6           0        0.405202   -0.526243   -0.000322
      2          6           0       -0.635476   -1.454243   -0.000317
      3          6           0       -1.960706   -1.037836   -0.000103
      4          7           0        1.741620   -1.015918    0.000102
      5          7           0        2.737291   -0.356547    0.000594
      6          1           0       -2.775687   -1.758743   -0.000374
      7          1           0       -0.356893   -2.506946   -0.000335
      8          6           0       -2.211528    0.341279    0.000469
      9          1           0       -3.229355    0.729589    0.000723
     10          6           0       -1.167359    1.245896    0.000237
     11          1           0       -1.280987    2.326196    0.000376
     12          7           0        0.148117    0.836290   -0.000117
     13          8           0        1.084117    1.693752   -0.000529
 ---------------------------------------------------------------------

 SCF Done:  E(UB3LYP) =  -432.340676590     A.U. after    1 cycles

 The electronic state is 2-A.
 Alpha  occ. eigenvalues --  -19.15481 -14.51073 -14.42301 -14.40214 -10.29865
 Alpha  occ. eigenvalues --  -10.26402 -10.24411 -10.24337 -10.23613  -1.14920
 Alpha  occ. eigenvalues --   -1.07225  -0.93571  -0.83738  -0.82632  -0.72588
 Alpha  occ. eigenvalues --   -0.69673  -0.62834  -0.55626  -0.53642  -0.51123
 Alpha  occ. eigenvalues --   -0.50184  -0.48485  -0.47133  -0.43865  -0.43376
 Alpha  occ. eigenvalues --   -0.41799  -0.40392  -0.37552  -0.30820  -0.29254
 Alpha  occ. eigenvalues --   -0.25182  -0.20575
 Alpha virt. eigenvalues --   -0.09821  -0.06971  -0.02226  -0.01228  -0.00279
 Alpha virt. eigenvalues --    0.00929   0.02723   0.02901   0.03386   0.05150
 Alpha virt. eigenvalues --    0.06193   0.07151   0.07165   0.07786   0.07964

  Beta  occ. eigenvalues --  -19.15447 -14.51080 -14.42015 -14.38521 -10.29515
  Beta  occ. eigenvalues --  -10.26357 -10.24436 -10.24370 -10.23594  -1.14820
  Beta  occ. eigenvalues --   -1.05460  -0.93377  -0.83017  -0.82598  -0.71511
  Beta  occ. eigenvalues --   -0.69488  -0.62175  -0.55471  -0.53430  -0.51077
  Beta  occ. eigenvalues --   -0.49809  -0.48430  -0.43898  -0.42720  -0.42689
  Beta  occ. eigenvalues --   -0.41365  -0.37588  -0.37528  -0.30488  -0.28416
  Beta  occ. eigenvalues --   -0.25159
  Beta virt. eigenvalues --   -0.09102  -0.06960  -0.06204  -0.02168  -0.00506
  Beta virt. eigenvalues --   -0.00270   0.00979   0.02764   0.02932   0.03372
  Beta virt. eigenvalues --    0.05215   0.06222   0.07167   0.07175   0.07836

 Mulliken atomic charges:
              1
     1  C   -0.237000
     2  C    1.684958
     3  C    0.450572
     4  N    0.119909
     5  N   -0.525612
     6  H   -0.674189
     7  H   -0.781920
     8  C    1.274009
     9  H   -0.706943
    10  C    0.431853
    11  H   -0.638941
    12  N    0.362229
    13  O   -0.758924
 Sum of Mulliken atomic charges =   0.00000

 Dipole moment (field-independent basis, Debye):
    X=             -5.8546    Y=             -1.6638    Z=              0.0002  Tot=              6.0864
 Quadrupole moment (field-independent basis, Debye-Ang):
   XX=            -53.9255   YY=            -50.4534   ZZ=            -52.3374
   XY=             -2.6866   XZ=             -0.0018   YZ=              0.0034

  Exact polarizability: 125.927   4.996  97.892  -0.003   0.003  48.451
 Approx polarizability: 221.277  29.530 184.676  -0.010   0.004  74.832

                     1                      2                      3
                     A                      A                      A
 Frequencies --   112.6180               156.4450               233.3631
 Red. masses --     8.0510                 7.1315                10.8389
 Frc consts  --     0.0602                 0.1028                 0.3478
 IR Inten    --     0.2835                 0.3056                 0.8420

                     4                      5                      6
                     A                      A                      A
 Frequencies --   280.3112               434.5551               451.7168
 Red. masses --     6.5103                 9.6522                 3.2527
 Frc consts  --     0.3014                 1.0739                 0.3910
 IR Inten    --     2.1726                 0.4311                 1.0822

                     7                      8                      9
                     A                      A                      A
 Frequencies --   472.8822               555.2585               586.6703
 Red. masses --     9.3245                 3.4727                 7.9548
 Frc consts  --     1.2285                 0.6308                 1.6131
 IR Inten    --     9.6026                 2.1021                 5.0239

                    10                     11                     12
                     A                      A                      A
 Frequencies --   636.8280               724.6929               752.0174
 Red. masses --     7.2186                 2.9769                 6.5046
 Frc consts  --     1.7248                 0.9211                 2.1673
 IR Inten    --    10.5046                10.4591                 0.1929

                    13                     14                     15
                     A                      A                      A
 Frequencies --   769.7578               872.4316               879.9602
 Red. masses --     1.3811                 1.4610                 6.2240
 Frc consts  --     0.4821                 0.6552                 2.8395
 IR Inten    --    63.3298                 0.8725                21.5909

                    16                     17                     18
                     A                      A                      A
 Frequencies --   963.0973               988.5088              1058.4431
 Red. masses --     1.3508                 1.3323                 2.0466
 Frc consts  --     0.7382                 0.7670                 1.3509
 IR Inten    --     2.9903                 0.3616                 6.9108

                    19                     20                     21
                     A                      A                      A
 Frequencies --  1096.2270              1155.5829              1170.3705
 Red. masses --     2.7687                 1.3323                 1.5798
 Frc consts  --     1.9603                 1.0482                 1.2750
 IR Inten    --     4.3938                16.9810                 9.6873

                    22                     23                     24
                     A                      A                      A
 Frequencies --  1244.8311              1293.5234              1354.8045
 Red. masses --     4.0316                 1.6934                 4.7429
 Frc consts  --     3.6809                 1.6694                 5.1292
 IR Inten    --     6.7927                 1.1070               106.1453

                    25                     26                     27
                     A                      A                      A
 Frequencies --  1454.7956              1495.2952              1567.5260
 Red. masses --     2.6143                 2.8899                 5.7835
 Frc consts  --     3.2600                 3.8071                 8.3729
 IR Inten    --   103.6884                 4.5294                14.4461

                    28                     29                     30
                     A                      A                      A
 Frequencies --  1652.1133              1782.0392              3202.4392
 Red. masses --     6.0771                13.4689                 1.0878
 Frc consts  --     9.7729                25.2010                 6.5728
 IR Inten    --    14.4639                22.8313                 1.2524

                    31                     32                     33
                     A                      A                      A
 Frequencies --  3211.2418              3223.5871              3248.8938
 Red. masses --     1.0914                 1.0981                 1.0956
 Frc consts  --     6.6308                 6.7231                 6.8134
 IR Inten    --     0.2458                 1.3708                 0.9414

 - Thermochemistry -
 -------------------
 Temperature   298.150 Kelvin.  Pressure   1.00000 Atm.
 Atom     1 has atomic number  6 and mass  12.00000

 Molecular mass:   122.03544 amu.
 Principal axes and moments of inertia in atomic units:
                           1         2         3
     Eigenvalues --   532.057501121.603181653.66056
           X            0.99999   0.00320  -0.00001
           Y           -0.00320   0.99999   0.00002
           Z            0.00001  -0.00002   1.00000
 This molecule is an asymmetric top.
 Rotational symmetry number  1.
 Warning -- assumption of classical behavior for rotation
           may cause significant error
 Rotational temperatures (Kelvin)      0.16279     0.07722     0.05238
 Rotational constants (GHZ):           3.39200     1.60907     1.09136
 Zero-point vibrational energy     233767.2 (Joules/Mol)
                                   55.87171 (Kcal/Mol)
 Warning -- explicit consideration of   9 degrees of freedom as
           vibrations may cause significant error
 Vibrational temperatures:    162.03   225.09   335.76   403.30   625.23
          (Kelvin)            649.92   680.37   798.89   844.09   916.25
                             1042.67  1081.98  1107.51  1255.23  1266.06
                             1385.68  1422.24  1522.86  1577.22  1662.62
                             1683.90  1791.03  1861.09  1949.26  2093.12
                             2151.39  2255.32  2377.02  2563.95  4607.59
                             4620.25  4638.02  4674.43

 Zero-point correction=                           0.089037 (Hartree/Particle)
 Thermal correction to Energy=                    0.096077
 Thermal correction to Enthalpy=                  0.097022
 Thermal correction to Gibbs Free Energy=         0.056793
 Sum of electronic and zero-point Energies=           -432.251639
 Sum of electronic and thermal Energies=              -432.244599
 Sum of electronic and thermal Enthalpies=            -432.243655
 Sum of electronic and thermal Free Energies=         -432.283884

                     E (Thermal)             CV                S
                      KCal/Mol        Cal/Mol-Kelvin    Cal/Mol-Kelvin
 Total                   60.290             26.402             84.668
 Electronic               0.000              0.000              1.377
 Translational            0.889              2.981             40.312
 Rotational               0.889              2.981             28.380
 Vibrational             58.512             20.441             14.599
 Vibration     1          0.607              1.939              3.223
 Vibration     2          0.620              1.895              2.592
 Vibration     3          0.654              1.790              1.853
 Vibration     4          0.680              1.710              1.532
 Vibration     5          0.795              1.395              0.844
 Vibration     6          0.810              1.357              0.791
 Vibration     7          0.830              1.310              0.730
 Vibration     8          0.911              1.128              0.533
 Vibration     9          0.944              1.060              0.473

 Optimization completed.
    -- Stationary point found.
 Normal termination of Gaussian 09 at Tue Feb 22 03:30:24 2005.
