 Gaussian 09, Revision B.01,
 Gaussian 09:  EM64L-G09RevB.01 12-Aug-2010

 -------------------------------------------------
 #p Temperature=298.15 opt freq UB3LYP/aug-cc-pVDZ
 -------------------------------------------------

 ------------------------------------------
 N-O-Pyridine-3+-UB3LYP-aug-cc-pVDZ-Singlet
 ------------------------------------------
 Symbolic Z-matrix:
 Charge =  1 Multiplicity = 1

 SCF Done:  E(UB3LYP) =  -322.432942444     A.U. after   22 cycles
 SCF Done:  E(UB3LYP) =  -322.460198136     A.U. after   20 cycles
 SCF Done:  E(UB3LYP) =  -322.471104409     A.U. after   18 cycles
 SCF Done:  E(UB3LYP) =  -322.472438077     A.U. after   18 cycles
 SCF Done:  E(UB3LYP) =  -322.472602003     A.U. after   14 cycles
 SCF Done:  E(UB3LYP) =  -322.472737119     A.U. after   14 cycles
 SCF Done:  E(UB3LYP) =  -322.426604402     A.U. after   17 cycles
 SCF Done:  E(UB3LYP) =  -322.472759664     A.U. after   17 cycles
 SCF Done:  E(UB3LYP) =  -322.471655778     A.U. after   16 cycles
 SCF Done:  E(UB3LYP) =  -322.473121152     A.U. after   15 cycles
 SCF Done:  E(UB3LYP) =  -322.471269411     A.U. after   16 cycles
 SCF Done:  E(UB3LYP) =  -322.473769797     A.U. after   15 cycles
 SCF Done:  E(UB3LYP) =  -322.474513319     A.U. after   14 cycles
 SCF Done:  E(UB3LYP) =  -322.474676410     A.U. after   14 cycles
 SCF Done:  E(UB3LYP) =  -322.474762252     A.U. after   14 cycles
 SCF Done:  E(UB3LYP) =  -322.474794774     A.U. after   13 cycles
 SCF Done:  E(UB3LYP) =  -322.474810320     A.U. after   13 cycles
 SCF Done:  E(UB3LYP) =  -322.474818912     A.U. after   11 cycles
 SCF Done:  E(UB3LYP) =  -322.474820236     A.U. after   12 cycles
 Optimization completed.
    -- Stationary point found.
 Normal termination of Gaussian 09 at Tue Mar  6 07:01:56 2018.

 ----------------------------------------------------------------------
 #P Geom=AllCheck Guess=TCheck SCRF=Check GenChk UB3LYP/Aug-CC-pVDZ Fre
 q
 ----------------------------------------------------------------------

 N-O-Pyridine-3+-UB3LYP-aug-cc-pVDZ-Singlet
 ------------------------------------------
 Redundant internal coordinates taken from checkpoint file:
 N-O-Pyridine-3+-UB3LYP-aug-cc-pVDZ-Singlet.chk
 Charge =  1 Multiplicity = 1

                         Standard orientation:
 ---------------------------------------------------------------------
 Center     Atomic      Atomic             Coordinates (Angstroms)
 Number     Number       Type             X           Y           Z
 ---------------------------------------------------------------------
      1          6           0        0.394620   -1.266894   -0.028528
      2          6           0       -0.926416   -1.174618   -0.011853
      3          6           0       -1.905598   -0.274060    0.026118
      4          6           0       -1.245752    1.008274   -0.088240
      5          1           0        1.072312   -2.069626   -0.307315
      6          1           0       -1.874252    1.898753   -0.001844
      7          1           0       -2.932445   -0.377909    0.374150
      8          7           0        0.978681    0.057317    0.074638
      9          6           0        0.121070    1.154755   -0.037679
     10          1           0        0.633656    2.113352   -0.013586
     11          8           0        2.202802    0.168683    0.033403
 ---------------------------------------------------------------------

 SCF Done:  E(UB3LYP) =  -322.474820236     A.U. after    1 cycles

 The electronic state is 1-A.
 Alpha  occ. eigenvalues --  -19.39751 -14.73936 -10.50880 -10.48500 -10.46503
 Alpha  occ. eigenvalues --  -10.46340 -10.46300  -1.38648  -1.15373  -1.04216
 Alpha  occ. eigenvalues --   -1.02526  -0.89420  -0.87043  -0.76984  -0.75445
 Alpha  occ. eigenvalues --   -0.72358  -0.71649  -0.69393  -0.65242  -0.64199
 Alpha  occ. eigenvalues --   -0.59560  -0.51826  -0.51092  -0.46384
 Alpha virt. eigenvalues --   -0.37779  -0.29011  -0.24814  -0.15503  -0.14004
 Alpha virt. eigenvalues --   -0.12574  -0.11868  -0.11629  -0.09587  -0.09334
 Alpha virt. eigenvalues --   -0.09028  -0.06524  -0.06463  -0.05706  -0.05382

  Beta  occ. eigenvalues --  -19.39751 -14.73936 -10.50880 -10.48500 -10.46503
  Beta  occ. eigenvalues --  -10.46340 -10.46300  -1.38648  -1.15373  -1.04216
  Beta  occ. eigenvalues --   -1.02526  -0.89420  -0.87043  -0.76984  -0.75445
  Beta  occ. eigenvalues --   -0.72358  -0.71649  -0.69393  -0.65242  -0.64199
  Beta  occ. eigenvalues --   -0.59560  -0.51826  -0.51092  -0.46384
  Beta virt. eigenvalues --   -0.37779  -0.29011  -0.24814  -0.15503  -0.14004
  Beta virt. eigenvalues --   -0.12574  -0.11868  -0.11629  -0.09587  -0.09334
  Beta virt. eigenvalues --   -0.09028  -0.06524  -0.06463  -0.05706  -0.05382

 Mulliken atomic charges:
              1
     1  C    0.867954
     2  C    0.029690
     3  C    0.935745
     4  C    0.857612
     5  H   -0.495194
     6  H   -0.561933
     7  H   -0.464724
     8  N    0.168720
     9  C    0.750817
    10  H   -0.526979
    11  O   -0.561709
 Sum of Mulliken atomic charges =   1.00000

 Dipole moment (field-independent basis, Debye):
    X=             -4.1565    Y=             -0.4939    Z=              0.1088  Tot=              4.1872
 Quadrupole moment (field-independent basis, Debye-Ang):
   XX=            -27.0810   YY=            -23.9683   ZZ=            -38.8477
   XY=             -2.0535   XZ=             -1.5994   YZ=              0.6062

  Exact polarizability:  98.789   3.310  69.905   0.070   0.296  34.985
 Approx polarizability: 280.727  39.901 144.410   4.129   0.758  53.077

                     1                      2                      3
                     A                      A                      A
 Frequencies --   198.3660               273.1535               396.7019
 Red. masses --     4.3786                 4.5997                 2.9944
 Frc consts  --     0.1015                 0.2022                 0.2776
 IR Inten    --     8.4164                37.2327                15.6658

                     4                      5                      6
                     A                      A                      A
 Frequencies --   506.5924               547.3801               606.3144
 Red. masses --     6.8188                 5.0338                 2.8554
 Frc consts  --     1.0310                 0.8886                 0.6185
 IR Inten    --     7.8300                25.2605                24.6941

                     7                      8                      9
                     A                      A                      A
 Frequencies --   616.4596               703.6531               750.5763
 Red. masses --     4.5659                 1.4466                 4.8631
 Frc consts  --     1.0223                 0.4220                 1.6142
 IR Inten    --    41.5490                48.2868                 1.1148

                    10                     11                     12
                     A                      A                      A
 Frequencies --   765.2805               843.8914               862.7065
 Red. masses --     1.7035                 1.7006                 4.7182
 Frc consts  --     0.5878                 0.7136                 2.0690
 IR Inten    --    41.6785                12.8511                23.0835

                    13                     14                     15
                     A                      A                      A
 Frequencies --   931.6950               977.6530              1072.4117
 Red. masses --     1.4926                 2.7806                 1.5820
 Frc consts  --     0.7634                 1.5659                 1.0720
 IR Inten    --     6.9520                11.6073                17.5083

                    16                     17                     18
                     A                      A                      A
 Frequencies --  1088.4859              1186.5677              1242.0565
 Red. masses --     1.4780                 1.3018                 1.5324
 Frc consts  --     1.0318                 1.0799                 1.3929
 IR Inten    --    10.7193                12.1562                 2.3433

                    19                     20                     21
                     A                      A                      A
 Frequencies --  1347.2359              1385.3272              1496.8058
 Red. masses --     3.0757                 2.0194                11.3663
 Frc consts  --     3.2892                 2.2833                15.0037
 IR Inten    --    24.1105                 8.6595               280.5813

                    22                     23                     24
                     A                      A                      A
 Frequencies --  1517.3595              1798.8008              3176.0889
 Red. masses --     4.0199                 8.9469                 1.0896
 Frc consts  --     5.4531                17.0565                 6.4760
 IR Inten    --    45.8005                23.9562                27.3433

                    25                     26                     27
                     A                      A                      A
 Frequencies --  3218.4275              3247.4075              3250.9836
 Red. masses --     1.0968                 1.0990                 1.0972
 Frc consts  --     6.6935                 6.8284                 6.8324
 IR Inten    --    95.8525                96.0301                31.0442

 - Thermochemistry -
 -------------------
 Temperature   298.150 Kelvin.  Pressure   1.00000 Atm.
 Atom     1 has atomic number  6 and mass  12.00000

 Molecular mass:    94.02929 amu.
 Principal axes and moments of inertia in atomic units:
                           1         2         3
     Eigenvalues --   279.72334 642.10355 918.62702
           X            0.99942  -0.03298  -0.00807
           Y            0.03303   0.99943   0.00628
           Z            0.00786  -0.00654   0.99995
 This molecule is an asymmetric top.
 Rotational symmetry number  1.
 Rotational temperatures (Kelvin)      0.30964     0.13489     0.09429
 Rotational constants (GHZ):           6.45188     2.81067     1.96461
 Zero-point vibrational energy     203415.3 (Joules/Mol)
                                   48.61742 (Kcal/Mol)
 Warning -- explicit consideration of   7 degrees of freedom as
           vibrations may cause significant error
 Vibrational temperatures:    285.40   393.01   570.76   728.87   787.56
          (Kelvin)            872.35   886.95  1012.40  1079.91  1101.07
                             1214.17  1241.24  1340.50  1406.62  1542.96
                             1566.09  1707.20  1787.04  1938.37  1993.17
                             2153.57  2183.14  2588.07  4569.68  4630.59
                             4672.29  4677.43

 Zero-point correction=                           0.077477 (Hartree/Particle)
 Thermal correction to Energy=                    0.082983
 Thermal correction to Enthalpy=                  0.083927
 Thermal correction to Gibbs Free Energy=         0.048519
 Sum of electronic and zero-point Energies=           -322.397343
 Sum of electronic and thermal Energies=              -322.391837
 Sum of electronic and thermal Enthalpies=            -322.390893
 Sum of electronic and thermal Free Energies=         -322.426301

                     E (Thermal)             CV                S
                      KCal/Mol        Cal/Mol-Kelvin    Cal/Mol-Kelvin
 Total                   52.073             21.059             74.523
 Electronic               0.000              0.000              0.000
 Translational            0.889              2.981             39.535
 Rotational               0.889              2.981             26.603
 Vibrational             50.295             15.098              8.386
 Vibration     1          0.637              1.842              2.148
 Vibration     2          0.676              1.723              1.576
 Vibration     3          0.763              1.477              0.975
 Vibration     4          0.862              1.235              0.642
 Vibration     5          0.903              1.145              0.550
 Vibration     6          0.965              1.018              0.439
 Vibration     7          0.976              0.997              0.422

 Optimization completed.
    -- Stationary point found.
 Normal termination of Gaussian 09 at Tue Mar  6 07:06:31 2018.
