 Gaussian 09, Revision B.01,
 Gaussian 09:  EM64L-G09RevB.01 12-Aug-2010

 -------------------------------------------------
 #p Temperature=298.15 opt freq UB3LYP/aug-cc-pVDZ
 -------------------------------------------------

 ------------------------------------------
 N-O-Pyridine-2+-UB3LYP-aug-cc-pVDZ-Singlet
 ------------------------------------------
 Symbolic Z-matrix:
 Charge =  1 Multiplicity = 1

 SCF Done:  E(UB3LYP) =  -322.418020712     A.U. after   25 cycles
 SCF Done:  E(UB3LYP) =  -322.442403805     A.U. after   18 cycles
 SCF Done:  E(UB3LYP) =  -322.450597686     A.U. after   19 cycles
 SCF Done:  E(UB3LYP) =  -322.453133151     A.U. after   14 cycles
 SCF Done:  E(UB3LYP) =  -322.453507315     A.U. after   14 cycles
 SCF Done:  E(UB3LYP) =  -322.453737197     A.U. after   15 cycles
 SCF Done:  E(UB3LYP) =  -322.453799301     A.U. after   13 cycles
 SCF Done:  E(UB3LYP) =  -322.453823934     A.U. after   16 cycles
 SCF Done:  E(UB3LYP) =  -322.453828144     A.U. after   11 cycles
 SCF Done:  E(UB3LYP) =  -322.453829202     A.U. after   11 cycles
 Optimization completed.
    -- Stationary point found.
 Normal termination of Gaussian 09 at Tue Mar  6 06:17:55 2018.

 ----------------------------------------------------------------------
 #P Geom=AllCheck Guess=TCheck SCRF=Check GenChk UB3LYP/Aug-CC-pVDZ Fre
 q
 ----------------------------------------------------------------------

 N-O-Pyridine-2+-UB3LYP-aug-cc-pVDZ-Singlet
 ------------------------------------------
 Redundant internal coordinates taken from checkpoint file:
 N-O-Pyridine-2+-UB3LYP-aug-cc-pVDZ-Singlet.chk
 Charge =  1 Multiplicity = 1

                         Standard orientation:
 ---------------------------------------------------------------------
 Center     Atomic      Atomic             Coordinates (Angstroms)
 Number     Number       Type             X           Y           Z
 ---------------------------------------------------------------------
      1          6           0        0.136240   -1.113686    0.301195
      2          6           0       -1.135025   -1.251150   -0.154073
      3          6           0       -1.715266    0.038494   -0.071012
      4          1           0       -2.795513    0.080472    0.100309
      5          1           0       -1.720215   -2.170146   -0.141214
      6          6           0       -0.948876    1.243302   -0.013596
      7          1           0       -1.462000    2.202481   -0.091825
      8          6           0        0.414007    1.211056    0.081089
      9          1           0        1.122248    2.029710   -0.044176
     10          7           0        0.985721   -0.076313    0.102639
     11          8           0        2.181120   -0.297053   -0.175399
 ---------------------------------------------------------------------

 SCF Done:  E(UB3LYP) =  -322.453829202     A.U. after    2 cycles

 The electronic state is 1-A.
 Alpha  occ. eigenvalues --  -19.40774 -14.74515 -10.52857 -10.48016 -10.47817
 Alpha  occ. eigenvalues --  -10.46995 -10.45446  -1.39229  -1.16598  -1.04900
 Alpha  occ. eigenvalues --   -1.02919  -0.91097  -0.86742  -0.76979  -0.74822
 Alpha  occ. eigenvalues --   -0.72876  -0.71327  -0.70386  -0.64932  -0.63715
 Alpha  occ. eigenvalues --   -0.57861  -0.52852  -0.51252  -0.47647
 Alpha virt. eigenvalues --   -0.38716  -0.29325  -0.26672  -0.16965  -0.14372
 Alpha virt. eigenvalues --   -0.12950  -0.12015  -0.11127  -0.10341  -0.09846
 Alpha virt. eigenvalues --   -0.07942  -0.06827  -0.06610  -0.05944  -0.05165

  Beta  occ. eigenvalues --  -19.40774 -14.74515 -10.52857 -10.48016 -10.47817
  Beta  occ. eigenvalues --  -10.46995 -10.45446  -1.39229  -1.16598  -1.04900
  Beta  occ. eigenvalues --   -1.02919  -0.91097  -0.86742  -0.76979  -0.74822
  Beta  occ. eigenvalues --   -0.72876  -0.71327  -0.70386  -0.64932  -0.63715
  Beta  occ. eigenvalues --   -0.57861  -0.52852  -0.51252  -0.47647
  Beta virt. eigenvalues --   -0.38716  -0.29325  -0.26672  -0.16965  -0.14372
  Beta virt. eigenvalues --   -0.12950  -0.12015  -0.11127  -0.10341  -0.09846
  Beta virt. eigenvalues --   -0.07942  -0.06827  -0.06610  -0.05944  -0.05165

 Mulliken atomic charges:
              1
     1  C   -0.173414
     2  C    1.072822
     3  C    0.599683
     4  H   -0.561966
     5  H   -0.462231
     6  C    1.280917
     7  H   -0.558851
     8  C    0.523219
     9  H   -0.480512
    10  N    0.314422
    11  O   -0.554088
 Sum of Mulliken atomic charges =   1.00000

 Dipole moment (field-independent basis, Debye):
    X=             -4.5308    Y=              1.0946    Z=              0.0474  Tot=              4.6614
 Quadrupole moment (field-independent basis, Debye-Ang):
   XX=            -27.5965   YY=            -24.7312   ZZ=            -38.9338
   XY=              2.9609   XZ=              0.7405   YZ=              0.4238

  Exact polarizability:  89.971   0.571  73.166  -0.569  -1.369  36.747
 Approx polarizability: 204.234   2.384 152.656  -4.723 -10.444  61.323

                     1                      2                      3
                     A                      A                      A
 Frequencies --   199.7901               252.4359               410.0207
 Red. masses --     5.3287                 5.8602                 3.8472
 Frc consts  --     0.1253                 0.2200                 0.3811
 IR Inten    --     1.7811                 4.6839                 7.9066

                     4                      5                      6
                     A                      A                      A
 Frequencies --   429.7493               487.6655               543.2671
 Red. masses --     3.7127                 6.9481                 4.4176
 Frc consts  --     0.4040                 0.9735                 0.7682
 IR Inten    --    27.7611                26.4476                15.8950

                     7                      8                      9
                     A                      A                      A
 Frequencies --   657.1059               748.1089               820.2397
 Red. masses --     4.5893                 2.2761                 1.6876
 Frc consts  --     1.1675                 0.7505                 0.6690
 IR Inten    --    12.7482                47.7562                51.5731

                    10                     11                     12
                     A                      A                      A
 Frequencies --   859.9869               881.9261               924.2979
 Red. masses --     3.8758                 1.8451                 1.4288
 Frc consts  --     1.6888                 0.8456                 0.7192
 IR Inten    --     6.5233                45.9221                 6.0263

                    13                     14                     15
                     A                      A                      A
 Frequencies --   977.3265              1001.7529              1113.0041
 Red. masses --     1.5815                 2.0128                 1.7085
 Frc consts  --     0.8900                 1.1900                 1.2470
 IR Inten    --     1.5405                 1.0840                13.4695

                    16                     17                     18
                     A                      A                      A
 Frequencies --  1156.1256              1194.2400              1306.8144
 Red. masses --     1.2036                 1.7108                 2.3793
 Frc consts  --     0.9479                 1.4375                 2.3940
 IR Inten    --    12.5640                26.1643                 8.0485

                    19                     20                     21
                     A                      A                      A
 Frequencies --  1318.9288              1391.4932              1409.7269
 Red. masses --     2.1819                 5.9495                 2.4202
 Frc consts  --     2.2363                 6.7872                 2.8338
 IR Inten    --     9.8112                66.0561                73.4920

                    22                     23                     24
                     A                      A                      A
 Frequencies --  1518.9451              1622.7837              3166.6472
 Red. masses --     4.2198                 6.3081                 1.0893
 Frc consts  --     5.7363                 9.7874                 6.4356
 IR Inten    --    25.0971                 4.3753                27.2784

                    25                     26                     27
                     A                      A                      A
 Frequencies --  3210.9769              3218.7244              3231.5274
 Red. masses --     1.0921                 1.0973                 1.1011
 Frc consts  --     6.6342                 6.6977                 6.7747
 IR Inten    --    22.8506                42.5951                32.9990

 - Thermochemistry -
 -------------------
 Temperature   298.150 Kelvin.  Pressure   1.00000 Atm.
 Atom     1 has atomic number  6 and mass  12.00000

 Molecular mass:    94.02929 amu.
 Principal axes and moments of inertia in atomic units:
                           1         2         3
     Eigenvalues --   311.38749 606.54531 902.25533
           X            0.99957   0.02946   0.00033
           Y           -0.02946   0.99957   0.00024
           Z           -0.00032  -0.00025   1.00000
 This molecule is an asymmetric top.
 Rotational symmetry number  1.
 Rotational temperatures (Kelvin)      0.27815     0.14280     0.09600
 Rotational constants (GHZ):           5.79581     2.97544     2.00026
 Zero-point vibrational energy     203685.8 (Joules/Mol)
                                   48.68208 (Kcal/Mol)
 Warning -- explicit consideration of   6 degrees of freedom as
           vibrations may cause significant error
 Vibrational temperatures:    287.45   363.20   589.93   618.31   701.64
          (Kelvin)            781.64   945.43  1076.36  1180.14  1237.33
                             1268.89  1329.86  1406.15  1441.30  1601.36
                             1663.40  1718.24  1880.21  1897.64  2002.05
                             2028.28  2185.42  2334.82  4556.09  4619.87
                             4631.02  4649.44

 Zero-point correction=                           0.077580 (Hartree/Particle)
 Thermal correction to Energy=                    0.083115
 Thermal correction to Enthalpy=                  0.084059
 Thermal correction to Gibbs Free Energy=         0.048542
 Sum of electronic and zero-point Energies=           -322.376249
 Sum of electronic and thermal Energies=              -322.370714
 Sum of electronic and thermal Enthalpies=            -322.369770
 Sum of electronic and thermal Free Energies=         -322.405287

                     E (Thermal)             CV                S
                      KCal/Mol        Cal/Mol-Kelvin    Cal/Mol-Kelvin
 Total                   52.155             20.773             74.751
 Electronic               0.000              0.000              0.000
 Translational            0.889              2.981             39.535
 Rotational               0.889              2.981             26.635
 Vibrational             50.378             14.811              8.581
 Vibration     1          0.638              1.840              2.135
 Vibration     2          0.664              1.759              1.714
 Vibration     3          0.774              1.448              0.927
 Vibration     4          0.791              1.405              0.859
 Vibration     5          0.844              1.277              0.690
 Vibration     6          0.898              1.154              0.558

 Optimization completed.
    -- Stationary point found.
 Normal termination of Gaussian 09 at Tue Mar  6 06:22:31 2018.
