 Gaussian 09, Revision B.01,
 Gaussian 09:  EM64L-G09RevB.01 12-Aug-2010

 -------------------------------------------------
 #p Temperature=298.15 opt freq UB3LYP/aug-cc-pVDZ
 -------------------------------------------------

 -------------------------------------------
 N-O-Pyridine-3-N2-UB3LYP-aug-cc-pVDZ-Duplet
 -------------------------------------------
 Symbolic Z-matrix:
 Charge =  0 Multiplicity = 2

 SCF Done:  E(UB3LYP) =  -432.008794893     A.U. after   26 cycles
 SCF Done:  E(UB3LYP) =  -432.113498369     A.U. after   23 cycles
 SCF Done:  E(UB3LYP) =  -432.211462895     A.U. after   29 cycles
 SCF Done:  E(UB3LYP) =  -432.282654326     A.U. after   23 cycles
 SCF Done:  E(UB3LYP) =  -432.313031718     A.U. after   24 cycles
 SCF Done:  E(UB3LYP) =  -432.324944363     A.U. after   25 cycles
 SCF Done:  E(UB3LYP) =  -432.327935244     A.U. after   21 cycles
 SCF Done:  E(UB3LYP) =  -432.330148129     A.U. after   22 cycles
 SCF Done:  E(UB3LYP) =  -432.333918911     A.U. after   22 cycles
 SCF Done:  E(UB3LYP) =  -432.336162072     A.U. after   21 cycles
 SCF Done:  E(UB3LYP) =  -432.340556564     A.U. after   22 cycles
 SCF Done:  E(UB3LYP) =  -432.341930079     A.U. after   22 cycles
 SCF Done:  E(UB3LYP) =  -432.342796259     A.U. after   18 cycles
 SCF Done:  E(UB3LYP) =  -432.343468596     A.U. after   19 cycles
 SCF Done:  E(UB3LYP) =  -432.343600399     A.U. after   20 cycles
 SCF Done:  E(UB3LYP) =  -432.343642026     A.U. after   22 cycles
 SCF Done:  E(UB3LYP) =  -432.343653291     A.U. after   26 cycles
 SCF Done:  E(UB3LYP) =  -432.343654298     A.U. after   24 cycles
 SCF Done:  E(UB3LYP) =  -432.343654457     A.U. after   24 cycles
 Optimization completed.
    -- Stationary point found.
 Normal termination of Gaussian 09 at Tue Mar 20 20:41:26 2018.

 ----------------------------------------------------------------------
 #P Geom=AllCheck Guess=TCheck SCRF=Check GenChk UB3LYP/Aug-CC-pVDZ Fre
 q
 ----------------------------------------------------------------------

 N-O-Pyridine-3-N2-UB3LYP-aug-cc-pVDZ-Duplet
 -------------------------------------------
 Redundant internal coordinates taken from checkpoint file:
 N-O-Pyridine-3-N2-UB3LYP-aug-cc-pVDZ-Duplet.chk
 Charge =  0 Multiplicity = 2

                         Standard orientation:
 ---------------------------------------------------------------------
 Center     Atomic      Atomic             Coordinates (Angstroms)
 Number     Number       Type             X           Y           Z
 ---------------------------------------------------------------------
      1          6           0        0.055285   -0.836563    0.000097
      2          6           0        0.909478    0.260490   -0.000092
      3          6           0        0.425813    1.566311   -0.000245
      4          6           0       -0.963515    1.728397   -0.000004
      5          1           0        0.386853   -1.870340   -0.000008
      6          7           0        2.360053    0.083602    0.000022
      7          7           0        2.910217   -0.963929    0.000066
      8          1           0       -1.411317    2.721179   -0.000137
      9          1           0        1.113820    2.408783    0.000191
     10          7           0       -1.301102   -0.656323    0.000078
     11          6           0       -1.801611    0.627838    0.000247
     12          1           0       -2.886681    0.673472    0.000297
     13          8           0       -2.092443   -1.656923   -0.000191
 ---------------------------------------------------------------------

 SCF Done:  E(UB3LYP) =  -432.343654457     A.U. after    1 cycles

 The electronic state is 2-A.
 Alpha  occ. eigenvalues --  -19.14416 -14.50802 -14.44067 -14.41937 -10.28319
 Alpha  occ. eigenvalues --  -10.26571 -10.26527 -10.24610 -10.24021  -1.13806
 Alpha  occ. eigenvalues --   -1.09553  -0.93513  -0.84371  -0.82461  -0.73616
 Alpha  occ. eigenvalues --   -0.67773  -0.63520  -0.56205  -0.54809  -0.50298
 Alpha  occ. eigenvalues --   -0.49850  -0.48996  -0.48261  -0.46183  -0.44944
 Alpha  occ. eigenvalues --   -0.43027  -0.41028  -0.37152  -0.31207  -0.27949
 Alpha  occ. eigenvalues --   -0.24789  -0.22970
 Alpha virt. eigenvalues --   -0.10370  -0.07600  -0.02242  -0.01906   0.00453
 Alpha virt. eigenvalues --    0.00764   0.02684   0.03035   0.03638   0.04337
 Alpha virt. eigenvalues --    0.06541   0.07241   0.07496   0.07545   0.08067

  Beta  occ. eigenvalues --  -19.14383 -14.50783 -14.43703 -14.40394 -10.27924
  Beta  occ. eigenvalues --  -10.26578 -10.26553 -10.24595 -10.24058  -1.13754
  Beta  occ. eigenvalues --   -1.07778  -0.93332  -0.83740  -0.82365  -0.72679
  Beta  occ. eigenvalues --   -0.67606  -0.62454  -0.56007  -0.54546  -0.50223
  Beta  occ. eigenvalues --   -0.49416  -0.48366  -0.45760  -0.45492  -0.43147
  Beta  occ. eigenvalues --   -0.42659  -0.38690  -0.36949  -0.30970  -0.27783
  Beta  occ. eigenvalues --   -0.24771
  Beta virt. eigenvalues --   -0.09546  -0.09034  -0.07627  -0.01841  -0.01681
  Beta virt. eigenvalues --    0.00505   0.00794   0.02751   0.03083   0.03717
  Beta virt. eigenvalues --    0.04410   0.06643   0.07315   0.07478   0.07633

 Mulliken atomic charges:
              1
     1  C    0.906066
     2  C    0.465077
     3  C    1.001161
     4  C    0.918529
     5  H   -0.691488
     6  N    0.086869
     7  N   -0.561684
     8  H   -0.676971
     9  H   -0.752720
    10  N    0.235271
    11  C    0.545481
    12  H   -0.650838
    13  O   -0.824753
 Sum of Mulliken atomic charges =   0.00000

 Dipole moment (field-independent basis, Debye):
    X=             -0.4116    Y=              4.1651    Z=              0.0006  Tot=              4.1854
 Quadrupole moment (field-independent basis, Debye-Ang):
   XX=            -61.0063   YY=            -51.0095   ZZ=            -52.2704
   XY=             -6.2542   XZ=             -0.0012   YZ=             -0.0001

  Exact polarizability: 120.019   1.010 105.405  -0.001  -0.001  47.943
 Approx polarizability: 200.996  14.193 201.744  -0.004  -0.003  74.072

                     1                      2                      3
                     A                      A                      A
 Frequencies --    70.2546               205.1600               209.4355
 Red. masses --     8.9341                 6.3546                10.1539
 Frc consts  --     0.0260                 0.1576                 0.2624
 IR Inten    --     0.0910                 4.8744                 2.2972

                     4                      5                      6
                     A                      A                      A
 Frequencies --   236.8065               434.6027               457.3689
 Red. masses --     5.2299                 9.1728                 3.0128
 Frc consts  --     0.1728                 1.0208                 0.3713
 IR Inten    --     0.2276                 7.5438                 1.6945

                     7                      8                      9
                     A                      A                      A
 Frequencies --   494.9565               551.7101               592.1581
 Red. masses --     6.8476                 8.2141                 7.7874
 Frc consts  --     0.9884                 1.4731                 1.6089
 IR Inten    --     5.4801                 8.1400                10.9864

                    10                     11                     12
                     A                      A                      A
 Frequencies --   595.4967               684.0633               739.0526
 Red. masses --     4.8952                 2.0721                 7.8831
 Frc consts  --     1.0228                 0.5713                 2.5369
 IR Inten    --     0.0695                22.3386                 5.4249

                    13                     14                     15
                     A                      A                      A
 Frequencies --   798.0449               889.4364               903.8010
 Red. masses --     1.4273                 1.5419                 1.4342
 Frc consts  --     0.5356                 0.7187                 0.6903
 IR Inten    --    37.6459                21.0665                 0.3758

                    16                     17                     18
                     A                      A                      A
 Frequencies --   951.6204               978.8433              1023.4107
 Red. masses --     4.3879                 1.3314                 6.3057
 Frc consts  --     2.3412                 0.7516                 3.8912
 IR Inten    --     8.9384                 0.1979                37.0234

                    19                     20                     21
                     A                      A                      A
 Frequencies --  1093.1293              1102.2753              1169.7922
 Red. masses --     1.5258                 1.9344                 1.1237
 Frc consts  --     1.0742                 1.3848                 0.9060
 IR Inten    --     7.0596                 3.0824                11.0567

                    22                     23                     24
                     A                      A                      A
 Frequencies --  1270.4235              1298.2506              1343.3393
 Red. masses --     7.4593                 1.4600                 4.2865
 Frc consts  --     7.0933                 1.4498                 4.5575
 IR Inten    --    12.8734                18.5109               173.5116

                    25                     26                     27
                     A                      A                      A
 Frequencies --  1468.0194              1490.7939              1583.6580
 Red. masses --     2.8627                 2.7342                 6.7183
 Frc consts  --     3.6349                 3.5802                 9.9274
 IR Inten    --    94.7734                47.7762                 8.9701

                    28                     29                     30
                     A                      A                      A
 Frequencies --  1650.8207              1849.6963              3206.0059
 Red. masses --     6.2056                13.7833                 1.0896
 Frc consts  --     9.9640                27.7846                 6.5984
 IR Inten    --    54.0313                23.1109                 1.9569

                    31                     32                     33
                     A                      A                      A
 Frequencies --  3225.6777              3253.7329              3254.2152
 Red. masses --     1.0954                 1.0945                 1.0946
 Frc consts  --     6.7154                 6.8273                 6.8295
 IR Inten    --     1.1996                 6.0974                 6.4225

 - Thermochemistry -
 -------------------
 Temperature   298.150 Kelvin.  Pressure   1.00000 Atm.
 Atom     1 has atomic number  6 and mass  12.00000

 Molecular mass:   122.03544 amu.
 Principal axes and moments of inertia in atomic units:
                           1         2         3
     Eigenvalues --   569.155221301.195551870.35075
           X            0.99982  -0.01884   0.00000
           Y            0.01884   0.99982   0.00000
           Z            0.00000   0.00000   1.00000
 This molecule is an asymmetric top.
 Rotational symmetry number  1.
 Warning -- assumption of classical behavior for rotation
           may cause significant error
 Rotational temperatures (Kelvin)      0.15218     0.06656     0.04631
 Rotational constants (GHZ):           3.17091     1.38699     0.96492
 Zero-point vibrational energy     233726.7 (Joules/Mol)
                                   55.86202 (Kcal/Mol)
 Warning -- explicit consideration of  10 degrees of freedom as
           vibrations may cause significant error
 Vibrational temperatures:    101.08   295.18   301.33   340.71   625.30
          (Kelvin)            658.05   712.13   793.79   851.98   856.79
                              984.21  1063.33  1148.21  1279.70  1300.37
                             1369.17  1408.34  1472.46  1572.77  1585.93
                             1683.07  1827.85  1867.89  1932.76  2112.15
                             2144.92  2278.53  2375.16  2661.30  4612.72
                             4641.03  4681.39  4682.08

 Zero-point correction=                           0.089022 (Hartree/Particle)
 Thermal correction to Energy=                    0.096174
 Thermal correction to Enthalpy=                  0.097118
 Thermal correction to Gibbs Free Energy=         0.056284
 Sum of electronic and zero-point Energies=           -432.254633
 Sum of electronic and thermal Energies=              -432.247481
 Sum of electronic and thermal Enthalpies=            -432.246537
 Sum of electronic and thermal Free Energies=         -432.287371

                     E (Thermal)             CV                S
                      KCal/Mol        Cal/Mol-Kelvin    Cal/Mol-Kelvin
 Total                   60.350             26.578             85.942
 Electronic               0.000              0.000              1.377
 Translational            0.889              2.981             40.312
 Rotational               0.889              2.981             28.717
 Vibrational             58.572             20.616             15.536
 Vibration     1          0.598              1.968              4.146
 Vibration     2          0.640              1.833              2.086
 Vibration     3          0.642              1.826              2.049
 Vibration     4          0.656              1.784              1.827
 Vibration     5          0.795              1.395              0.844
 Vibration     6          0.815              1.345              0.774
 Vibration     7          0.851              1.261              0.671
 Vibration     8          0.907              1.136              0.541
 Vibration     9          0.950              1.048              0.463
 Vibration    10          0.953              1.041              0.457

 Optimization completed.
    -- Stationary point found.
 Normal termination of Gaussian 09 at Tue Mar 20 20:51:39 2018.
