 Gaussian 09, Revision B.01,
 Gaussian 09:  EM64L-G09RevB.01 12-Aug-2010

 -------------------------------------------------
 #p Temperature=298.15 opt freq UB3LYP/aug-cc-pVDZ
 -------------------------------------------------

 ---------------------------------------------
 N-O-Pyridine-2-N2+-UB3LYP-aug-cc-pVDZ-Triplet
 ---------------------------------------------
 Symbolic Z-matrix:
 Charge =  1 Multiplicity = 3

 SCF Done:  E(UB3LYP) =  -432.009193326     A.U. after   23 cycles
 SCF Done:  E(UB3LYP) =  -432.021285949     A.U. after   21 cycles
 SCF Done:  E(UB3LYP) =  -432.022636167     A.U. after   16 cycles
 SCF Done:  E(UB3LYP) =  -432.022696152     A.U. after   23 cycles
 SCF Done:  E(UB3LYP) =  -432.022700495     A.U. after   23 cycles
 Optimization completed.
    -- Stationary point found.
 Normal termination of Gaussian 09 at Fri Jan 21 02:13:58 2005.

 ----------------------------------------------------------------------
 #P Geom=AllCheck Guess=TCheck SCRF=Check GenChk UB3LYP/Aug-CC-pVDZ Fre
 q
 ----------------------------------------------------------------------

 N-O-Pyridine-2-N2+-UB3LYP-aug-cc-pVDZ-Triplet
 ---------------------------------------------
 Redundant internal coordinates taken from checkpoint file:
 N-O-Pyridine-2-N2+-UB3LYP-aug-cc-pVDZ-Triplet.chk
 Charge =  1 Multiplicity = 3

                         Standard orientation:
 ---------------------------------------------------------------------
 Center     Atomic      Atomic             Coordinates (Angstroms)
 Number     Number       Type             X           Y           Z
 ---------------------------------------------------------------------
      1          6           0       -0.502500   -0.389030   -0.000354
      2          6           0        0.346538   -1.506170   -0.001158
      3          6           0        1.721962   -1.295786   -0.000486
      4          7           0       -1.833083   -0.458779    0.001327
      5          7           0       -2.974887   -0.543082    0.000484
      6          1           0        2.385117   -2.161244   -0.000784
      7          1           0       -0.081694   -2.507159   -0.001475
      8          6           0        2.279073    0.019668    0.001046
      9          1           0        3.355733    0.172228    0.002319
     10          6           0        1.439694    1.096942    0.000441
     11          1           0        1.738908    2.143725    0.001084
     12          7           0        0.063238    0.914145   -0.000086
     13          8           0       -0.736693    1.926590   -0.001269
 ---------------------------------------------------------------------

 SCF Done:  E(UB3LYP) =  -432.022700495     A.U. after    1 cycles

 The electronic state is 3-A.
 Alpha  occ. eigenvalues --  -19.42219 -14.68725 -14.68175 -14.65465 -10.52783
 Alpha  occ. eigenvalues --  -10.46417 -10.44107 -10.43795 -10.41089  -1.36757
 Alpha  occ. eigenvalues --   -1.33044  -1.14868  -1.07929  -1.02035  -0.95275
 Alpha  occ. eigenvalues --   -0.88502  -0.83123  -0.74869  -0.74025  -0.73830
 Alpha  occ. eigenvalues --   -0.69236  -0.69189  -0.68067  -0.66929  -0.66234
 Alpha  occ. eigenvalues --   -0.61107  -0.59508  -0.58604  -0.52449  -0.51601
 Alpha  occ. eigenvalues --   -0.49987  -0.38135
 Alpha virt. eigenvalues --   -0.27841  -0.26869  -0.20853  -0.15145  -0.13116
 Alpha virt. eigenvalues --   -0.12266  -0.10950  -0.10832  -0.09770  -0.08889
 Alpha virt. eigenvalues --   -0.08411  -0.06839  -0.06243  -0.05527  -0.05417

  Beta  occ. eigenvalues --  -19.40311 -14.68167 -14.68109 -14.64466 -10.52561
  Beta  occ. eigenvalues --  -10.46320 -10.43789 -10.43687 -10.40912  -1.34311
  Beta  occ. eigenvalues --   -1.31628  -1.13017  -1.06733  -1.00474  -0.94407
  Beta  occ. eigenvalues --   -0.88049  -0.82220  -0.74399  -0.72755  -0.70218
  Beta  occ. eigenvalues --   -0.68464  -0.67558  -0.65826  -0.65246  -0.64385
  Beta  occ. eigenvalues --   -0.60739  -0.59225  -0.53868  -0.50669  -0.49046
  Beta virt. eigenvalues --   -0.37499  -0.28247  -0.26954  -0.23877  -0.17523
  Beta virt. eigenvalues --   -0.15045  -0.12859  -0.12216  -0.10757  -0.09698
  Beta virt. eigenvalues --   -0.08796  -0.08685  -0.08209  -0.06122  -0.06046

 Mulliken atomic charges:
              1
     1  C    0.094157
     2  C    1.695281
     3  C    0.494983
     4  N    0.449151
     5  N   -0.603872
     6  H   -0.637162
     7  H   -0.686982
     8  C    1.198458
     9  H   -0.652036
    10  C    0.513531
    11  H   -0.573143
    12  N    0.230220
    13  O   -0.522586
 Sum of Mulliken atomic charges =   1.00000

 Dipole moment (field-independent basis, Debye):
    X=              3.3574    Y=             -2.4927    Z=              0.0021  Tot=              4.1816
 Quadrupole moment (field-independent basis, Debye-Ang):
   XX=            -30.5556   YY=            -36.7821   ZZ=            -49.1491
   XY=              1.9523   XZ=              0.0034   YZ=              0.0083

  Exact polarizability: 140.658   0.168  92.143   0.000   0.005  42.160
 Approx polarizability: 263.774  -9.875 161.284   0.002   0.005  64.811

                     1                      2                      3
                     A                      A                      A
 Frequencies --    96.2540               130.6299               155.8625
 Red. masses --     6.6293                 9.5871                10.2716
 Frc consts  --     0.0362                 0.0964                 0.1470
 IR Inten    --     1.2685                 0.0265                 0.3363

                     4                      5                      6
                     A                      A                      A
 Frequencies --   220.0666               367.8560               376.9975
 Red. masses --     7.3323                 3.3666                11.6348
 Frc consts  --     0.2092                 0.2684                 0.9743
 IR Inten    --     0.1626                 3.2226                 1.7734

                     7                      8                      9
                     A                      A                      A
 Frequencies --   418.9748               441.0534               569.4114
 Red. masses --     3.6882                10.2814                 7.0213
 Frc consts  --     0.3814                 1.1784                 1.3413
 IR Inten    --     4.7487                 3.0906                 2.8181

                    10                     11                     12
                     A                      A                      A
 Frequencies --   589.8538               611.3040               732.1359
 Red. masses --     7.5650                 3.6577                 6.0425
 Frc consts  --     1.5508                 0.8053                 1.9083
 IR Inten    --     0.5867                 7.8080                 6.2485

                    13                     14                     15
                     A                      A                      A
 Frequencies --   758.6205               855.0572               864.3235
 Red. masses --     1.2469                 1.2901                 6.5162
 Frc consts  --     0.4228                 0.5557                 2.8681
 IR Inten    --    62.0943                 1.1453                 2.9109

                    16                     17                     18
                     A                      A                      A
 Frequencies --   971.8511               996.9891              1018.7505
 Red. masses --     1.3346                 1.4381                 2.3044
 Frc consts  --     0.7427                 0.8422                 1.4091
 IR Inten    --     0.4537                 1.2874                12.1562

                    19                     20                     21
                     A                      A                      A
 Frequencies --  1119.3976              1174.3814              1228.1587
 Red. masses --     1.9841                 1.1478                 2.0976
 Frc consts  --     1.4648                 0.9327                 1.8641
 IR Inten    --     0.4393                28.4059                21.3363

                    22                     23                     24
                     A                      A                      A
 Frequencies --  1275.3459              1311.6201              1356.1587
 Red. masses --     6.2692                 1.8162                 4.9395
 Frc consts  --     6.0078                 1.8409                 5.3524
 IR Inten    --    19.5260                 0.7557                28.4301

                    25                     26                     27
                     A                      A                      A
 Frequencies --  1424.8136              1503.9929              1538.4972
 Red. masses --     2.2151                 2.9469                 6.3555
 Frc consts  --     2.6495                 3.9274                 8.8632
 IR Inten    --     2.0195                12.5313               205.8665

                    28                     29                     30
                     A                      A                      A
 Frequencies --  1593.6147              2113.8385              3209.6639
 Red. masses --     4.5317                13.8809                 1.0908
 Frc consts  --     6.7807                36.5436                 6.6210
 IR Inten    --   163.8419               234.7139                 6.3100

                    31                     32                     33
                     A                      A                      A
 Frequencies --  3225.7761              3232.8898              3244.6464
 Red. masses --     1.0964                 1.0916                 1.1011
 Frc consts  --     6.7221                 6.7222                 6.8297
 IR Inten    --    17.3048                19.4508                28.5626

 - Thermochemistry -
 -------------------
 Temperature   298.150 Kelvin.  Pressure   1.00000 Atm.
 Atom     1 has atomic number  6 and mass  12.00000

 Molecular mass:   122.03544 amu.
 Principal axes and moments of inertia in atomic units:
                           1         2         3
     Eigenvalues --   562.213671166.558001728.77096
           X            0.99999  -0.00469   0.00002
           Y            0.00469   0.99999   0.00005
           Z           -0.00002  -0.00005   1.00000
 This molecule is an asymmetric top.
 Rotational symmetry number  1.
 Warning -- assumption of classical behavior for rotation
           may cause significant error
 Rotational temperatures (Kelvin)      0.15406     0.07425     0.05010
 Rotational constants (GHZ):           3.21006     1.54707     1.04394
 Zero-point vibrational energy     231649.6 (Joules/Mol)
                                   55.36558 (Kcal/Mol)
 Warning -- explicit consideration of  11 degrees of freedom as
           vibrations may cause significant error
 Vibrational temperatures:    138.49   187.95   224.25   316.63   529.26
          (Kelvin)            542.41   602.81   634.58   819.25   848.67
                              879.53  1053.38  1091.48  1230.24  1243.57
                             1398.28  1434.44  1465.75  1610.56  1689.67
                             1767.04  1834.94  1887.13  1951.21  2049.99
                             2163.91  2213.55  2292.85  3041.34  4617.98
                             4641.17  4651.40  4668.32

 Zero-point correction=                           0.088231 (Hartree/Particle)
 Thermal correction to Energy=                    0.095918
 Thermal correction to Enthalpy=                  0.096862
 Thermal correction to Gibbs Free Energy=         0.054722
 Sum of electronic and zero-point Energies=           -431.934470
 Sum of electronic and thermal Energies=              -431.926782
 Sum of electronic and thermal Enthalpies=            -431.925838
 Sum of electronic and thermal Free Energies=         -431.967978

                     E (Thermal)             CV                S
                      KCal/Mol        Cal/Mol-Kelvin    Cal/Mol-Kelvin
 Total                   60.189             27.718             88.691
 Electronic               0.000              0.000              2.183
 Translational            0.889              2.981             40.312
 Rotational               0.889              2.981             28.518
 Vibrational             58.412             21.756             17.678
 Vibration     1          0.603              1.952              3.529
 Vibration     2          0.612              1.923              2.937
 Vibration     3          0.620              1.896              2.599
 Vibration     4          0.647              1.811              1.959
 Vibration     5          0.740              1.538              1.089
 Vibration     6          0.748              1.519              1.051
 Vibration     7          0.782              1.429              0.895
 Vibration     8          0.801              1.381              0.823
 Vibration     9          0.925              1.097              0.505
 Vibration    10          0.947              1.053              0.467
 Vibration    11          0.970              1.008              0.431

 Normal termination of Gaussian 09 at Fri Jan 21 02:23:59 2005.
