 Gaussian 09, Revision B.01,
 Gaussian 09:  EM64L-G09RevB.01 12-Aug-2010

 -------------------------------------------------
 #p Temperature=298.15 opt freq UB3LYP/aug-cc-pVDZ
 -------------------------------------------------

 ---------------------------------------------
 N-O-Pyridine-2-N2+-UB3LYP-aug-cc-pVDZ-Singlet
 ---------------------------------------------
 Symbolic Z-matrix:
 Charge =  1 Multiplicity = 1

 SCF Done:  E(UB3LYP) =  -432.063323413     A.U. after   18 cycles
 SCF Done:  E(UB3LYP) =  -432.077646404     A.U. after   16 cycles
 SCF Done:  E(UB3LYP) =  -432.078747116     A.U. after   13 cycles
 SCF Done:  E(UB3LYP) =  -432.078893230     A.U. after   17 cycles
 SCF Done:  E(UB3LYP) =  -432.078907634     A.U. after   18 cycles
 SCF Done:  E(UB3LYP) =  -432.078908226     A.U. after   18 cycles
 SCF Done:  E(UB3LYP) =  -432.078908911     A.U. after    9 cycles
 Optimization completed.
    -- Stationary point found.
 Normal termination of Gaussian 09 at Tue Mar  6 05:57:30 2018.

 ----------------------------------------------------------------------
 #P Geom=AllCheck Guess=TCheck SCRF=Check GenChk UB3LYP/Aug-CC-pVDZ Fre
 q
 ----------------------------------------------------------------------

 N-O-Pyridine-2-N2+-UB3LYP-aug-cc-pVDZ-Singlet
 ---------------------------------------------
 Redundant internal coordinates taken from checkpoint file:
 N-O-Pyridine-2-N2+-UB3LYP-aug-cc-pVDZ-Singlet.chk
 Charge =  1 Multiplicity = 1

                         Standard orientation:
 ---------------------------------------------------------------------
 Center     Atomic      Atomic             Coordinates (Angstroms)
 Number     Number       Type             X           Y           Z
 ---------------------------------------------------------------------
      1          6           0        0.428043   -0.401626   -0.000087
      2          6           0       -0.446011   -1.505676   -0.000169
      3          6           0       -1.800598   -1.242372    0.000081
      4          7           0        1.784308   -0.536870    0.000054
      5          7           0        2.897289   -0.618696    0.000097
      6          1           0       -2.521721   -2.057089    0.000319
      7          1           0       -0.038171   -2.515638   -0.000035
      8          6           0       -2.230069    0.103315   -0.000013
      9          1           0       -3.294468    0.338259    0.000388
     10          6           0       -1.339487    1.160821   -0.000013
     11          1           0       -1.610477    2.213942    0.000232
     12          7           0        0.017601    0.935671   -0.000140
     13          8           0        0.862399    1.859127    0.000028
 ---------------------------------------------------------------------

 SCF Done:  E(UB3LYP) =  -432.078908911     A.U. after    1 cycles

 The electronic state is 1-A.
 Alpha  occ. eigenvalues --  -19.35496 -14.73734 -14.71224 -14.70372 -10.51953
 Alpha  occ. eigenvalues --  -10.44115 -10.43850 -10.42329 -10.41088  -1.39362
 Alpha  occ. eigenvalues --   -1.35055  -1.14455  -1.07954  -1.01223  -0.94371
 Alpha  occ. eigenvalues --   -0.88635  -0.81853  -0.75166  -0.75089  -0.72603
 Alpha  occ. eigenvalues --   -0.70650  -0.69346  -0.68512  -0.67352  -0.66930
 Alpha  occ. eigenvalues --   -0.60251  -0.59087  -0.55787  -0.50149  -0.48030
 Alpha  occ. eigenvalues --   -0.43980
 Alpha virt. eigenvalues --   -0.31780  -0.29854  -0.24521  -0.20257  -0.15455
 Alpha virt. eigenvalues --   -0.12809  -0.12272  -0.10777  -0.09911  -0.09332
 Alpha virt. eigenvalues --   -0.08641  -0.08122  -0.06415  -0.06279  -0.05151

  Beta  occ. eigenvalues --  -19.35496 -14.73734 -14.71224 -14.70372 -10.51953
  Beta  occ. eigenvalues --  -10.44115 -10.43850 -10.42329 -10.41088  -1.39362
  Beta  occ. eigenvalues --   -1.35055  -1.14455  -1.07954  -1.01223  -0.94371
  Beta  occ. eigenvalues --   -0.88635  -0.81853  -0.75166  -0.75089  -0.72603
  Beta  occ. eigenvalues --   -0.70650  -0.69346  -0.68512  -0.67352  -0.66930
  Beta  occ. eigenvalues --   -0.60251  -0.59087  -0.55787  -0.50149  -0.48030
  Beta  occ. eigenvalues --   -0.43980
  Beta virt. eigenvalues --   -0.31780  -0.29854  -0.24521  -0.20257  -0.15455
  Beta virt. eigenvalues --   -0.12809  -0.12272  -0.10777  -0.09911  -0.09332
  Beta virt. eigenvalues --   -0.08641  -0.08122  -0.06415  -0.06279  -0.05151

 Mulliken atomic charges:
              1
     1  C    0.157518
     2  C    1.576235
     3  C    0.548599
     4  N    0.562806
     5  N   -0.607153
     6  H   -0.626050
     7  H   -0.678338
     8  C    1.105273
     9  H   -0.651045
    10  C    0.514667
    11  H   -0.583631
    12  N    0.339473
    13  O   -0.658356
 Sum of Mulliken atomic charges =   1.00000

 Dipole moment (field-independent basis, Debye):
    X=             -2.0406    Y=             -3.5218    Z=              0.0005  Tot=              4.0703
 Quadrupole moment (field-independent basis, Debye-Ang):
   XX=            -26.5595   YY=            -39.4108   ZZ=            -49.1563
   XY=             -5.1491   XZ=             -0.0019   YZ=             -0.0001

  Exact polarizability: 124.780   0.360  92.205   0.000   0.001  41.776
 Approx polarizability: 245.826   8.623 186.857   0.001   0.002  64.734

                     1                      2                      3
                     A                      A                      A
 Frequencies --   123.3320               148.6665               220.3897
 Red. masses --     6.0678                10.2839                 6.2549
 Frc consts  --     0.0544                 0.1339                 0.1790
 IR Inten    --     2.2944                 0.4708                 1.6314

                     4                      5                      6
                     A                      A                      A
 Frequencies --   393.5692               397.3759               440.1668
 Red. masses --    12.6075                 4.0219                 9.6335
 Frc consts  --     1.1506                 0.3742                 1.0997
 IR Inten    --     4.9188                 0.4203                 5.8681

                     7                      8                      9
                     A                      A                      A
 Frequencies --   491.0127               548.1889               577.3806
 Red. masses --     3.8565                 4.6388                 7.5421
 Frc consts  --     0.5478                 0.8213                 1.4814
 IR Inten    --     9.3439                 0.4373                 4.9206

                    10                     11                     12
                     A                      A                      A
 Frequencies --   603.3446               714.0782               749.1149
 Red. masses --     6.9225                 3.9628                 6.0211
 Frc consts  --     1.4847                 1.1905                 1.9908
 IR Inten    --     5.5600                 0.2919                 3.1705

                    13                     14                     15
                     A                      A                      A
 Frequencies --   767.2128               875.9555               880.7156
 Red. masses --     1.2772                 6.3571                 1.4335
 Frc consts  --     0.4429                 2.8739                 0.6551
 IR Inten    --    66.0986                15.5720                 3.8485

                    16                     17                     18
                     A                      A                      A
 Frequencies --   974.2109              1015.5661              1043.2754
 Red. masses --     1.3371                 1.3808                 2.1588
 Frc consts  --     0.7477                 0.8391                 1.3844
 IR Inten    --     0.8688                 0.0712                 2.8898

                    19                     20                     21
                     A                      A                      A
 Frequencies --  1120.1001              1169.1706              1201.4725
 Red. masses --     2.2842                 1.2490                 1.8294
 Frc consts  --     1.6885                 1.0060                 1.5559
 IR Inten    --    24.5598                42.6591                46.1774

                    22                     23                     24
                     A                      A                      A
 Frequencies --  1271.7583              1304.0697              1380.5606
 Red. masses --     3.3000                 2.4879                 2.8417
 Frc consts  --     3.1447                 2.4928                 3.1911
 IR Inten    --    39.6680                24.2862                45.0323

                    25                     26                     27
                     A                      A                      A
 Frequencies --  1461.3020              1487.3564              1562.8366
 Red. masses --     2.3855                 3.5623                 6.1121
 Frc consts  --     3.0013                 4.6431                 8.7956
 IR Inten    --   132.2444                60.5922                65.7201

                    28                     29                     30
                     A                      A                      A
 Frequencies --  1628.3780              2320.4468              3212.6878
 Red. masses --     5.2156                13.9685                 1.0913
 Frc consts  --     8.1482                44.3143                 6.6365
 IR Inten    --    69.3519               212.2905                 1.8450

                    31                     32                     33
                     A                      A                      A
 Frequencies --  3218.2250              3233.1426              3246.7350
 Red. masses --     1.0931                 1.0985                 1.0976
 Frc consts  --     6.6701                 6.7654                 6.8166
 IR Inten    --    13.2541                18.8569                25.6652

 - Thermochemistry -
 -------------------
 Temperature   298.150 Kelvin.  Pressure   1.00000 Atm.
 Atom     1 has atomic number  6 and mass  12.00000

 Molecular mass:   122.03544 amu.
 Principal axes and moments of inertia in atomic units:
                           1         2         3
     Eigenvalues --   559.093251136.471811695.56505
           X            0.99999   0.00456  -0.00001
           Y           -0.00456   0.99999   0.00000
           Z            0.00001   0.00000   1.00000
 This molecule is an asymmetric top.
 Rotational symmetry number  1.
 Warning -- assumption of classical behavior for rotation
           may cause significant error
 Rotational temperatures (Kelvin)      0.15492     0.07621     0.05108
 Rotational constants (GHZ):           3.22798     1.58802     1.06439
 Zero-point vibrational energy     237948.0 (Joules/Mol)
                                   56.87093 (Kcal/Mol)
 Warning -- explicit consideration of  10 degrees of freedom as
           vibrations may cause significant error
 Vibrational temperatures:    177.45   213.90   317.09   566.26   571.73
          (Kelvin)            633.30   706.46   788.72   830.72   868.08
                             1027.40  1077.81  1103.85  1260.30  1267.15
                             1401.67  1461.17  1501.04  1611.57  1682.17
                             1728.65  1829.77  1876.26  1986.32  2102.49
                             2139.97  2248.57  2342.87  3338.60  4622.34
                             4630.30  4651.77  4671.32

 Zero-point correction=                           0.090630 (Hartree/Particle)
 Thermal correction to Energy=                    0.097602
 Thermal correction to Enthalpy=                  0.098547
 Thermal correction to Gibbs Free Energy=         0.059093
 Sum of electronic and zero-point Energies=           -431.988279
 Sum of electronic and thermal Energies=              -431.981307
 Sum of electronic and thermal Enthalpies=            -431.980362
 Sum of electronic and thermal Free Energies=         -432.019816

                     E (Thermal)             CV                S
                      KCal/Mol        Cal/Mol-Kelvin    Cal/Mol-Kelvin
 Total                   61.246             26.263             83.038
 Electronic               0.000              0.000              0.000
 Translational            0.889              2.981             40.312
 Rotational               0.889              2.981             28.468
 Vibrational             59.469             20.301             14.259
 Vibration     1          0.610              1.930              3.047
 Vibration     2          0.618              1.904              2.689
 Vibration     3          0.647              1.810              1.956
 Vibration     4          0.761              1.484              0.987
 Vibration     5          0.764              1.476              0.972
 Vibration     6          0.800              1.383              0.826
 Vibration     7          0.847              1.270              0.681
 Vibration     8          0.903              1.144              0.548
 Vibration     9          0.934              1.080              0.490
 Vibration    10          0.962              1.025              0.444

 Optimization completed.
    -- Stationary point found.
 Normal termination of Gaussian 09 at Tue Mar  6 06:07:07 2018.
