 Gaussian 09, Revision B.01,
 Gaussian 09:  EM64L-G09RevB.01 12-Aug-2010

 -------------------------------------------------
 #p Temperature=298.15 opt freq UB3LYP/aug-cc-pVDZ
 -------------------------------------------------

 ------------------------------------------
 N-O-Pyridine-2+-UB3LYP-aug-cc-pVDZ-Triplet
 ------------------------------------------
 Symbolic Z-matrix:
 Charge =  1 Multiplicity = 3

 SCF Done:  E(UB3LYP) =  -322.476891930     A.U. after   22 cycles
 SCF Done:  E(UB3LYP) =  -322.488191329     A.U. after   19 cycles
 SCF Done:  E(UB3LYP) =  -322.488736445     A.U. after   19 cycles
 SCF Done:  E(UB3LYP) =  -322.488804039     A.U. after   15 cycles
 SCF Done:  E(UB3LYP) =  -322.488809895     A.U. after   22 cycles
 SCF Done:  E(UB3LYP) =  -322.488810249     A.U. after   22 cycles
 Optimization completed.
    -- Stationary point found.
 Normal termination of Gaussian 09 at Fri Jan 21 02:38:27 2005.

 ----------------------------------------------------------------------
 #P Geom=AllCheck Guess=TCheck SCRF=Check GenChk UB3LYP/Aug-CC-pVDZ Fre
 q
 ----------------------------------------------------------------------

 N-O-Pyridine-2+-UB3LYP-aug-cc-pVDZ-Triplet
 ------------------------------------------
 Redundant internal coordinates taken from checkpoint file:
 N-O-Pyridine-2+-UB3LYP-aug-cc-pVDZ-Triplet.chk
 Charge =  1 Multiplicity = 3

                         Standard orientation:
 ---------------------------------------------------------------------
 Center     Atomic      Atomic             Coordinates (Angstroms)
 Number     Number       Type             X           Y           Z
 ---------------------------------------------------------------------
      1          6           0        0.217872   -1.216244    0.000011
      2          6           0       -1.146269   -1.226869    0.000169
      3          6           0       -1.768043    0.041241   -0.000073
      4          1           0       -2.858082    0.099710   -0.000141
      5          1           0       -1.714131   -2.157017    0.000381
      6          6           0       -0.998972    1.228080    0.000064
      7          1           0       -1.485291    2.202733    0.000210
      8          6           0        0.373346    1.164134    0.000064
      9          1           0        1.067407    2.003763    0.000408
     10          7           0        0.978201   -0.087866   -0.000656
     11          8           0        2.259386   -0.184523    0.000290
 ---------------------------------------------------------------------

 SCF Done:  E(UB3LYP) =  -322.488810249     A.U. after    1 cycles

 The electronic state is 3-A.
 Alpha  occ. eigenvalues --  -19.45023 -14.72746 -10.51324 -10.48333 -10.46358
 Alpha  occ. eigenvalues --  -10.44518 -10.43916  -1.39454  -1.16770  -1.03903
 Alpha  occ. eigenvalues --   -1.03013  -0.90553  -0.87078  -0.77346  -0.74992
 Alpha  occ. eigenvalues --   -0.74254  -0.71944  -0.69634  -0.64461  -0.61982
 Alpha  occ. eigenvalues --   -0.60261  -0.54551  -0.52226  -0.51920  -0.51197
 Alpha virt. eigenvalues --   -0.29735  -0.25637  -0.15475  -0.12693  -0.12514
 Alpha virt. eigenvalues --   -0.12300  -0.10930  -0.09981  -0.09577  -0.08248
 Alpha virt. eigenvalues --   -0.07586  -0.06186  -0.05589  -0.05504  -0.04710

  Beta  occ. eigenvalues --  -19.43053 -14.72717 -10.49419 -10.48173 -10.45947
  Beta  occ. eigenvalues --  -10.44592 -10.44008  -1.36865  -1.14315  -1.02599
  Beta  occ. eigenvalues --   -1.01619  -0.89834  -0.85628  -0.75876  -0.73935
  Beta  occ. eigenvalues --   -0.70719  -0.70573  -0.69089  -0.63253  -0.61516
  Beta  occ. eigenvalues --   -0.56259  -0.52414  -0.50850
  Beta virt. eigenvalues --   -0.38544  -0.34572  -0.26675  -0.23998  -0.15373
  Beta virt. eigenvalues --   -0.12556  -0.12048  -0.11395  -0.10767  -0.09477
  Beta virt. eigenvalues --   -0.09414  -0.07764  -0.06809  -0.06170  -0.05246

 Mulliken atomic charges:
              1
     1  C   -0.399816
     2  C    1.273970
     3  C    0.718489
     4  H   -0.595795
     5  H   -0.498324
     6  C    1.325290
     7  H   -0.601331
     8  C    0.492378
     9  H   -0.515374
    10  N    0.276957
    11  O   -0.476445
 Sum of Mulliken atomic charges =   1.00000

 Dipole moment (field-independent basis, Debye):
    X=             -3.4659    Y=              0.9621    Z=             -0.0001  Tot=              3.5969
 Quadrupole moment (field-independent basis, Debye-Ang):
   XX=            -26.4239   YY=            -25.5434   ZZ=            -38.3251
   XY=              2.2122   XZ=             -0.0011   YZ=              0.0008

  Exact polarizability:  88.001   0.592  67.149   0.002  -0.001  34.949
 Approx polarizability: 162.395  -1.041 112.815   0.005  -0.002  53.043

                     1                      2                      3
                     A                      A                      A
 Frequencies --   208.5377               392.2225               428.1676
 Red. masses --     5.4755                 3.4373                 7.8385
 Frc consts  --     0.1403                 0.3116                 0.8467
 IR Inten    --     0.8085                 3.4032                 3.3609

                     4                      5                      6
                     A                      A                      A
 Frequencies --   465.3880               528.0534               625.2718
 Red. masses --     3.4855                 8.6202                 7.2869
 Frc consts  --     0.4448                 1.4162                 1.6785
 IR Inten    --     0.0103                 0.0248                 1.9660

                     7                      8                      9
                     A                      A                      A
 Frequencies --   660.2237               780.9369               843.7914
 Red. masses --     3.0833                 1.3365                 5.8687
 Frc consts  --     0.7919                 0.4802                 2.4619
 IR Inten    --    12.4907                62.6798                 4.9033

                    10                     11                     12
                     A                      A                      A
 Frequencies --   872.4655               979.5389               997.3921
 Red. masses --     1.3251                 1.3553                 7.1654
 Frc consts  --     0.5943                 0.7662                 4.1998
 IR Inten    --     0.0491                 0.8639                 3.2212

                    13                     14                     15
                     A                      A                      A
 Frequencies --  1022.9249              1024.3507              1117.4489
 Red. masses --     1.4403                 2.0941                 1.6616
 Frc consts  --     0.8879                 1.2946                 1.2225
 IR Inten    --     0.9580                 1.7227                 9.0419

                    16                     17                     18
                     A                      A                      A
 Frequencies --  1167.9596              1206.8918              1258.3532
 Red. masses --     1.1277                 3.4347                 2.6649
 Frc consts  --     0.9063                 2.9476                 2.4862
 IR Inten    --     4.5492                 6.8590                10.7427

                    19                     20                     21
                     A                      A                      A
 Frequencies --  1331.6745              1411.0420              1450.8264
 Red. masses --     2.3121                 1.9377                 4.3908
 Frc consts  --     2.4158                 2.2731                 5.4454
 IR Inten    --     2.5168                22.2704                43.9438

                    22                     23                     24
                     A                      A                      A
 Frequencies --  1525.1921              1617.3256              3200.8211
 Red. masses --     3.2454                 5.9745                 1.0906
 Frc consts  --     4.4480                 9.2076                 6.5834
 IR Inten    --     5.3813                91.5703                 4.7351

                    25                     26                     27
                     A                      A                      A
 Frequencies --  3216.6300              3222.8359              3236.6172
 Red. masses --     1.0950                 1.0937                 1.1005
 Frc consts  --     6.6753                 6.6933                 6.7924
 IR Inten    --    30.4641                19.2966                36.0726

 - Thermochemistry -
 -------------------
 Temperature   298.150 Kelvin.  Pressure   1.00000 Atm.
 Atom     1 has atomic number  6 and mass  12.00000

 Molecular mass:    94.02929 amu.
 Principal axes and moments of inertia in atomic units:
                           1         2         3
     Eigenvalues --   301.34322 631.73039 933.07355
           X            0.99973   0.02322   0.00000
           Y           -0.02322   0.99973   0.00001
           Z            0.00000  -0.00001   1.00000
 This molecule is an asymmetric top.
 Rotational symmetry number  1.
 Rotational temperatures (Kelvin)      0.28743     0.13711     0.09283
 Rotational constants (GHZ):           5.98899     2.85682     1.93419
 Zero-point vibrational energy     208107.7 (Joules/Mol)
                                   49.73892 (Kcal/Mol)
 Warning -- explicit consideration of   5 degrees of freedom as
           vibrations may cause significant error
 Vibrational temperatures:    300.04   564.32   616.04   669.59   759.75
          (Kelvin)            899.63   949.91  1123.59  1214.03  1255.28
                             1409.34  1435.02  1471.76  1473.81  1607.76
                             1680.43  1736.45  1810.49  1915.98  2030.17
                             2087.41  2194.41  2326.97  4605.26  4628.01
                             4636.94  4656.76

 Zero-point correction=                           0.079264 (Hartree/Particle)
 Thermal correction to Energy=                    0.084433
 Thermal correction to Enthalpy=                  0.085377
 Thermal correction to Gibbs Free Energy=         0.049464
 Sum of electronic and zero-point Energies=           -322.409546
 Sum of electronic and thermal Energies=              -322.404378
 Sum of electronic and thermal Enthalpies=            -322.403433
 Sum of electronic and thermal Free Energies=         -322.439346

                     E (Thermal)             CV                S
                      KCal/Mol        Cal/Mol-Kelvin    Cal/Mol-Kelvin
 Total                   52.982             19.677             75.585
 Electronic               0.000              0.000              2.183
 Translational            0.889              2.981             39.535
 Rotational               0.889              2.981             26.677
 Vibrational             51.205             13.716              7.191
 Vibration     1          0.642              1.828              2.056
 Vibration     2          0.760              1.487              0.992
 Vibration     3          0.790              1.409              0.865
 Vibration     4          0.823              1.327              0.751
 Vibration     5          0.883              1.188              0.592

 Optimization completed.
    -- Stationary point found.
 Normal termination of Gaussian 09 at Fri Jan 21 02:42:52 2005.
