 Gaussian 09, Revision B.01,
 Gaussian 09:  EM64L-G09RevB.01 12-Aug-2010

 -------------------------------------------------
 #p Temperature=298.15 opt freq UB3LYP/aug-cc-pVDZ
 -------------------------------------------------

 ------------------------------------------
 N-O-Pyridine-4+-UB3LYP-aug-cc-pVDZ-Singlet
 ------------------------------------------
 Symbolic Z-matrix:
 Charge =  1 Multiplicity = 1

 SCF Done:  E(UB3LYP) =  -322.433832014     A.U. after   26 cycles
 SCF Done:  E(UB3LYP) =  -322.460143051     A.U. after   17 cycles
 SCF Done:  E(UB3LYP) =  -322.467562455     A.U. after   16 cycles
 SCF Done:  E(UB3LYP) =  -322.468241723     A.U. after   15 cycles
 SCF Done:  E(UB3LYP) =  -322.468363291     A.U. after   13 cycles
 SCF Done:  E(UB3LYP) =  -322.468431481     A.U. after   15 cycles
 SCF Done:  E(UB3LYP) =  -322.468452472     A.U. after   11 cycles
 SCF Done:  E(UB3LYP) =  -322.468454998     A.U. after   11 cycles
 Optimization completed.
    -- Stationary point found.
 Normal termination of Gaussian 09 at Tue Mar  6 07:35:14 2018.

 ----------------------------------------------------------------------
 #P Geom=AllCheck Guess=TCheck SCRF=Check GenChk UB3LYP/Aug-CC-pVDZ Fre
 q
 ----------------------------------------------------------------------

 N-O-Pyridine-4+-UB3LYP-aug-cc-pVDZ-Singlet
 ------------------------------------------
 Redundant internal coordinates taken from checkpoint file:
 N-O-Pyridine-4+-UB3LYP-aug-cc-pVDZ-Singlet.chk
 Charge =  1 Multiplicity = 1

                         Standard orientation:
 ---------------------------------------------------------------------
 Center     Atomic      Atomic             Coordinates (Angstroms)
 Number     Number       Type             X           Y           Z
 ---------------------------------------------------------------------
      1          6           0       -0.210210    1.216147   -0.037063
      2          6           0        1.182030    1.248961   -0.068196
      3          6           0        1.650538    0.000027    0.199957
      4          6           0        1.182102   -1.248930   -0.068202
      5          6           0       -0.210147   -1.216131   -0.037079
      6          1           0       -0.842413    2.101477    0.021246
      7          1           0        1.750085    2.178728   -0.128489
      8          1           0       -0.842315   -2.101506    0.021279
      9          1           0        1.750155   -2.178716   -0.128446
     10          7           0       -0.893275   -0.000008   -0.002960
     11          8           0       -2.141057   -0.000046    0.037327
 ---------------------------------------------------------------------

 SCF Done:  E(UB3LYP) =  -322.468454998     A.U. after    2 cycles

 The electronic state is 1-A.
 Alpha  occ. eigenvalues --  -19.37710 -14.72437 -10.52118 -10.48261 -10.48258
 Alpha  occ. eigenvalues --  -10.46956 -10.46954  -1.36747  -1.15748  -1.04119
 Alpha  occ. eigenvalues --   -1.03591  -0.91417  -0.85910  -0.76052  -0.75741
 Alpha  occ. eigenvalues --   -0.71591  -0.70562  -0.70034  -0.67701  -0.63921
 Alpha  occ. eigenvalues --   -0.60054  -0.51735  -0.49184  -0.45745
 Alpha virt. eigenvalues --   -0.38204  -0.27734  -0.26967  -0.16355  -0.13743
 Alpha virt. eigenvalues --   -0.13169  -0.11984  -0.11580  -0.10213  -0.09374
 Alpha virt. eigenvalues --   -0.08083  -0.06849  -0.05874  -0.05806  -0.04944

  Beta  occ. eigenvalues --  -19.37710 -14.72437 -10.52118 -10.48261 -10.48258
  Beta  occ. eigenvalues --  -10.46956 -10.46954  -1.36747  -1.15748  -1.04119
  Beta  occ. eigenvalues --   -1.03591  -0.91417  -0.85910  -0.76052  -0.75741
  Beta  occ. eigenvalues --   -0.71591  -0.70562  -0.70034  -0.67701  -0.63921
  Beta  occ. eigenvalues --   -0.60054  -0.51735  -0.49184  -0.45745
  Beta virt. eigenvalues --   -0.38204  -0.27734  -0.26967  -0.16355  -0.13743
  Beta virt. eigenvalues --   -0.13169  -0.11984  -0.11580  -0.10213  -0.09374
  Beta virt. eigenvalues --   -0.08083  -0.06849  -0.05874  -0.05806  -0.04944

 Mulliken atomic charges:
              1
     1  C    0.578321
     2  C    1.191921
     3  C   -0.392478
     4  C    1.191881
     5  C    0.578263
     6  H   -0.463429
     7  H   -0.456788
     8  H   -0.463402
     9  H   -0.456775
    10  N    0.295011
    11  O   -0.602526
 Sum of Mulliken atomic charges =   1.00000

 Dipole moment (field-independent basis, Debye):
    X=              4.7125    Y=              0.0000    Z=             -0.3773  Tot=              4.7276
 Quadrupole moment (field-independent basis, Debye-Ang):
   XX=            -31.1411   YY=            -19.9906   ZZ=            -39.1400
   XY=             -0.0004   XZ=             -1.0866   YZ=             -0.0002

  Exact polarizability: 103.559   0.000  71.517   2.804   0.000  35.282
 Approx polarizability: 363.925   0.008 125.075  14.998   0.001  55.062

                     1                      2                      3
                     A                      A                      A
 Frequencies --   219.5182               316.2554               404.9748
 Red. masses --     6.5080                 3.0909                 2.8249
 Frc consts  --     0.1848                 0.1821                 0.2730
 IR Inten    --     6.4860                 1.3855                 0.3219

                     4                      5                      6
                     A                      A                      A
 Frequencies --   436.3835               512.4326               571.5773
 Red. masses --     3.1562                 5.7094                 7.6802
 Frc consts  --     0.3541                 0.8833                 1.4783
 IR Inten    --    68.6642                10.1360                 4.2440

                     7                      8                      9
                     A                      A                      A
 Frequencies --   674.8896               702.4321               749.4336
 Red. masses --     3.1582                 1.6686                 4.6743
 Frc consts  --     0.8475                 0.4851                 1.5468
 IR Inten    --    94.7528                 0.5694               140.4412

                    10                     11                     12
                     A                      A                      A
 Frequencies --   805.8850               877.0460               895.1826
 Red. masses --     1.6955                 2.4269                 1.4280
 Frc consts  --     0.6488                 1.0999                 0.6742
 IR Inten    --    75.2783                61.8858                 2.3855

                    13                     14                     15
                     A                      A                      A
 Frequencies --   921.3071              1051.1552              1065.6306
 Red. masses --     2.0479                 2.0302                 1.2291
 Frc consts  --     1.0242                 1.3217                 0.8224
 IR Inten    --    32.3236                 5.3513                17.1984

                    16                     17                     18
                     A                      A                      A
 Frequencies --  1137.3020              1239.8214              1262.2576
 Red. masses --     1.2135                 6.1910                 1.3338
 Frc consts  --     0.9248                 5.6070                 1.2521
 IR Inten    --     9.8234                18.7463                 0.2113

                    19                     20                     21
                     A                      A                      A
 Frequencies --  1369.4318              1384.8724              1426.0704
 Red. masses --     2.3405                 3.4860                 8.3764
 Frc consts  --     2.5861                 3.9391                10.0366
 IR Inten    --     4.2484                38.8319                21.8102

                    22                     23                     24
                     A                      A                      A
 Frequencies --  1501.3606              1606.6311              3194.5765
 Red. masses --     4.3814                 8.1321                 1.0906
 Frc consts  --     5.8188                12.3676                 6.5574
 IR Inten    --   174.1753                 4.7619                85.3765

                    25                     26                     27
                     A                      A                      A
 Frequencies --  3198.5930              3227.1547              3228.9962
 Red. masses --     1.0944                 1.0963                 1.0984
 Frc consts  --     6.5969                 6.7267                 6.7478
 IR Inten    --    50.1274               105.4631                10.9760

 - Thermochemistry -
 -------------------
 Temperature   298.150 Kelvin.  Pressure   1.00000 Atm.
 Atom     1 has atomic number  6 and mass  12.00000

 Molecular mass:    94.02929 amu.
 Principal axes and moments of inertia in atomic units:
                           1         2         3
     Eigenvalues --   328.82815 571.48786 895.46638
           X            1.00000   0.00000  -0.00306
           Y            0.00000   1.00000   0.00000
           Z            0.00306   0.00000   1.00000
 This molecule is an asymmetric top.
 Rotational symmetry number  1.
 Rotational temperatures (Kelvin)      0.26340     0.15156     0.09672
 Rotational constants (GHZ):           5.48840     3.15797     2.01542
 Zero-point vibrational energy     203252.5 (Joules/Mol)
                                   48.57852 (Kcal/Mol)
 Warning -- explicit consideration of   6 degrees of freedom as
           vibrations may cause significant error
 Vibrational temperatures:    315.84   455.02   582.67   627.86   737.28
          (Kelvin)            822.37   971.01  1010.64  1078.27  1159.49
                             1261.87  1287.97  1325.55  1512.38  1533.20
                             1636.32  1783.82  1816.10  1970.30  1992.52
                             2051.79  2160.12  2311.58  4596.28  4602.06
                             4643.15  4645.80

 Zero-point correction=                           0.077415 (Hartree/Particle)
 Thermal correction to Energy=                    0.082858
 Thermal correction to Enthalpy=                  0.083802
 Thermal correction to Gibbs Free Energy=         0.048536
 Sum of electronic and zero-point Energies=           -322.391040
 Sum of electronic and thermal Energies=              -322.385597
 Sum of electronic and thermal Enthalpies=            -322.384653
 Sum of electronic and thermal Free Energies=         -322.419919

                     E (Thermal)             CV                S
                      KCal/Mol        Cal/Mol-Kelvin    Cal/Mol-Kelvin
 Total                   51.994             20.857             74.224
 Electronic               0.000              0.000              0.000
 Translational            0.889              2.981             39.535
 Rotational               0.889              2.981             26.623
 Vibrational             50.217             14.896              8.066
 Vibration     1          0.647              1.811              1.963
 Vibration     2          0.703              1.643              1.329
 Vibration     3          0.770              1.459              0.945
 Vibration     4          0.797              1.391              0.838
 Vibration     5          0.868              1.222              0.628
 Vibration     6          0.928              1.093              0.501

 Optimization completed.
    -- Stationary point found.
 Normal termination of Gaussian 09 at Tue Mar  6 07:39:55 2018.
