 Gaussian 09, Revision B.01,
 Gaussian 09:  EM64L-G09RevB.01 12-Aug-2010

 -------------------------------------------------
 #p Temperature=298.15 opt freq UB3LYP/aug-cc-pVDZ
 -------------------------------------------------

 -------------------------------------------
 N-O-Pyridine-4-N2-UB3LYP-aug-cc-pVDZ-Duplet
 -------------------------------------------
 Symbolic Z-matrix:
 Charge =  0 Multiplicity = 2

 SCF Done:  E(UB3LYP) =  -432.318538954     A.U. after   23 cycles
 SCF Done:  E(UB3LYP) =  -432.331641821     A.U. after   21 cycles
 SCF Done:  E(UB3LYP) =  -432.333507828     A.U. after   17 cycles
 SCF Done:  E(UB3LYP) =  -432.333568148     A.U. after   15 cycles
 SCF Done:  E(UB3LYP) =  -432.333571222     A.U. after   13 cycles
 Optimization completed.
    -- Stationary point found.
 Normal termination of Gaussian 09 at Tue Mar  6 11:29:30 2018.

 ----------------------------------------------------------------------
 #P Geom=AllCheck Guess=TCheck SCRF=Check GenChk UB3LYP/Aug-CC-pVDZ Fre
 q
 ----------------------------------------------------------------------

 N-O-Pyridine-4-N2-UB3LYP-aug-cc-pVDZ-Duplet
 -------------------------------------------
 Redundant internal coordinates taken from checkpoint file:
 N-O-Pyridine-4-N2-UB3LYP-aug-cc-pVDZ-Duplet.chk
 Charge =  0 Multiplicity = 2

                         Standard orientation:
 ---------------------------------------------------------------------
 Center     Atomic      Atomic             Coordinates (Angstroms)
 Number     Number       Type             X           Y           Z
 ---------------------------------------------------------------------
      1          6           0       -1.060906   -1.191059    0.000009
      2          6           0        0.305975   -1.229174    0.000040
      3          6           0        1.045299    0.000002   -0.000008
      4          6           0        0.305982    1.229167    0.000048
      5          6           0       -1.060905    1.191057   -0.000002
      6          1           0       -1.690376   -2.076337   -0.000044
      7          1           0        0.820428   -2.187502    0.000058
      8          7           0        2.373375   -0.000018    0.000483
      9          7           0        3.528896    0.000013   -0.000438
     10          1           0       -1.690389    2.076366   -0.000049
     11          1           0        0.820448    2.187517    0.000074
     12          7           0       -1.765854    0.000006   -0.000025
     13          8           0       -3.053462   -0.000001   -0.000087
 ---------------------------------------------------------------------

 SCF Done:  E(UB3LYP) =  -432.333571222     A.U. after    1 cycles

 The electronic state is 2-A.
 Alpha  occ. eigenvalues --  -19.13865 -14.48761 -14.47594 -14.44514 -10.28693
 Alpha  occ. eigenvalues --  -10.25336 -10.25333 -10.24081 -10.24079  -1.13217
 Alpha  occ. eigenvalues --   -1.11745  -0.93206  -0.87983  -0.81263  -0.75648
 Alpha  occ. eigenvalues --   -0.69046  -0.62017  -0.56099  -0.52946  -0.51999
 Alpha  occ. eigenvalues --   -0.49884  -0.48630  -0.48045  -0.47579  -0.47045
 Alpha  occ. eigenvalues --   -0.43967  -0.40252  -0.37154  -0.31233  -0.27056
 Alpha  occ. eigenvalues --   -0.26533  -0.17940
 Alpha virt. eigenvalues --   -0.08703  -0.05366  -0.03492  -0.01909  -0.00302
 Alpha virt. eigenvalues --    0.01051   0.02749   0.02866   0.03609   0.04683
 Alpha virt. eigenvalues --    0.06212   0.06576   0.06654   0.07529   0.07550

  Beta  occ. eigenvalues --  -19.13081 -14.48441 -14.47078 -14.43748 -10.28846
  Beta  occ. eigenvalues --  -10.25541 -10.25538 -10.23807 -10.23806  -1.12242
  Beta  occ. eigenvalues --   -1.10564  -0.92664  -0.87092  -0.81155  -0.74567
  Beta  occ. eigenvalues --   -0.68773  -0.62005  -0.55945  -0.52297  -0.49569
  Beta  occ. eigenvalues --   -0.49465  -0.47525  -0.46836  -0.46699  -0.46303
  Beta  occ. eigenvalues --   -0.43455  -0.40113  -0.35064  -0.30750  -0.26342
  Beta  occ. eigenvalues --   -0.23049
  Beta virt. eigenvalues --   -0.09669  -0.07963  -0.05094  -0.01884  -0.00987
  Beta virt. eigenvalues --   -0.00303   0.01047   0.02769   0.02842   0.03762
  Beta virt. eigenvalues --    0.04722   0.06630   0.06648   0.06750   0.07547

 Mulliken atomic charges:
              1
     1  C    0.115769
     2  C    1.856363
     3  C   -0.100561
     4  C    1.856329
     5  C    0.115642
     6  H   -0.628116
     7  H   -0.777138
     8  N    0.383215
     9  N   -0.782665
    10  H   -0.628059
    11  H   -0.777085
    12  N    0.184345
    13  O   -0.818040
 Sum of Mulliken atomic charges =   0.00000

 Dipole moment (field-independent basis, Debye):
    X=              2.7243    Y=              0.0000    Z=              0.0007  Tot=              2.7243
 Quadrupole moment (field-independent basis, Debye-Ang):
   XX=            -72.3408   YY=            -42.3874   ZZ=            -53.4396
   XY=             -0.0001   XZ=              0.0015   YZ=              0.0000

  Exact polarizability: 190.452   0.000  81.594  -0.006   0.000  49.895
 Approx polarizability: 396.152   0.001 125.407  -0.011   0.000  74.814

                     1                      2                      3
                     A                      A                      A
 Frequencies --    94.7770               133.5150               159.4361
 Red. masses --    10.2270                10.9447                 8.8958
 Frc consts  --     0.0541                 0.1150                 0.1332
 IR Inten    --     8.1132                 0.1970                 6.1359

                     4                      5                      6
                     A                      A                      A
 Frequencies --   273.2561               411.7226               425.7711
 Red. masses --     7.4180                11.9398                 3.2880
 Frc consts  --     0.3263                 1.1925                 0.3512
 IR Inten    --     4.1158                 1.7289                 0.0000

                     7                      8                      9
                     A                      A                      A
 Frequencies --   431.5631               447.4773               551.7931
 Red. masses --     2.9945                 8.5546                 6.5711
 Frc consts  --     0.3286                 1.0092                 1.1788
 IR Inten    --     8.5844                 5.5238                 0.2039

                    10                     11                     12
                     A                      A                      A
 Frequencies --   652.8294               666.1777               744.3864
 Red. masses --     4.6301                 7.2184                 5.5374
 Frc consts  --     1.1626                 1.8874                 1.8078
 IR Inten    --     2.9738                 0.0601                41.1179

                    13                     14                     15
                     A                      A                      A
 Frequencies --   769.3839               778.3808               827.3878
 Red. masses --     1.2400                 1.5151                 7.0864
 Frc consts  --     0.4325                 0.5409                 2.8582
 IR Inten    --     0.0035                71.5311                 5.3963

                    16                     17                     18
                     A                      A                      A
 Frequencies --   922.3494               939.3432              1006.4860
 Red. masses --     1.2694                 1.3001                 2.7161
 Frc consts  --     0.6363                 0.6759                 1.6211
 IR Inten    --     1.3784                 0.0000                 7.3445

                    19                     20                     21
                     A                      A                      A
 Frequencies --  1102.9476              1154.2584              1251.9449
 Red. masses --     1.4417                 1.2941                 3.0171
 Frc consts  --     1.0333                 1.0158                 2.7862
 IR Inten    --     1.5558                13.0533                 2.3503

                    22                     23                     24
                     A                      A                      A
 Frequencies --  1274.0006              1301.3049              1332.6981
 Red. masses --     3.8086                 1.3932                 6.5082
 Frc consts  --     3.6421                 1.3900                 6.8105
 IR Inten    --    30.2801                 0.9967               169.5276

                    25                     26                     27
                     A                      A                      A
 Frequencies --  1439.7045              1461.9368              1541.2956
 Red. masses --     4.4147                 2.3105                 5.1673
 Frc consts  --     5.3914                 2.9095                 7.2324
 IR Inten    --     2.6608                79.0140                 1.9757

                    28                     29                     30
                     A                      A                      A
 Frequencies --  1629.1649              2134.2541              3218.6771
 Red. masses --     5.2307                13.8949                 1.0906
 Frc consts  --     8.1798                37.2906                 6.6566
 IR Inten    --    32.8022               645.4226                 0.1498

                    31                     32                     33
                     A                      A                      A
 Frequencies --  3218.9905              3248.4815              3249.6896
 Red. masses --     1.0901                 1.0956                 1.0970
 Frc consts  --     6.6550                 6.8121                 6.8257
 IR Inten    --     0.1409                 1.0543                 1.0894

 - Thermochemistry -
 -------------------
 Temperature   298.150 Kelvin.  Pressure   1.00000 Atm.
 Atom     1 has atomic number  6 and mass  12.00000

 Molecular mass:   122.03544 amu.
 Principal axes and moments of inertia in atomic units:
                           1         2         3
     Eigenvalues --   316.548991769.525982086.07493
           X            1.00000   0.00000   0.00000
           Y            0.00000   1.00000   0.00000
           Z            0.00000   0.00000   1.00000
 This molecule is an asymmetric top.
 Rotational symmetry number  1.
 Rotational temperatures (Kelvin)      0.27362     0.04895     0.04152
 Rotational constants (GHZ):           5.70130     1.01990     0.86514
 Zero-point vibrational energy     232047.9 (Joules/Mol)
                                   55.46079 (Kcal/Mol)
 Warning -- explicit consideration of   9 degrees of freedom as
           vibrations may cause significant error
 Vibrational temperatures:    136.36   192.10   229.39   393.15   592.38
          (Kelvin)            612.59   620.92   643.82   793.91   939.27
                              958.48  1071.00  1106.97  1119.92  1190.43
                             1327.05  1351.50  1448.11  1586.89  1660.72
                             1801.27  1833.00  1872.29  1917.45  2071.41
                             2103.40  2217.58  2344.00  3070.71  4630.95
                             4631.40  4673.83  4675.57

 Zero-point correction=                           0.088382 (Hartree/Particle)
 Thermal correction to Energy=                    0.095874
 Thermal correction to Enthalpy=                  0.096818
 Thermal correction to Gibbs Free Energy=         0.055461
 Sum of electronic and zero-point Energies=           -432.245189
 Sum of electronic and thermal Energies=              -432.237697
 Sum of electronic and thermal Enthalpies=            -432.236753
 Sum of electronic and thermal Free Energies=         -432.278110

                     E (Thermal)             CV                S
                      KCal/Mol        Cal/Mol-Kelvin    Cal/Mol-Kelvin
 Total                   60.162             27.487             87.044
 Electronic               0.000              0.000              1.377
 Translational            0.889              2.981             40.312
 Rotational               0.889              2.981             28.548
 Vibrational             58.385             21.526             16.806
 Vibration     1          0.603              1.953              3.559
 Vibration     2          0.613              1.920              2.895
 Vibration     3          0.621              1.892              2.556
 Vibration     4          0.676              1.723              1.576
 Vibration     5          0.776              1.445              0.921
 Vibration     6          0.788              1.414              0.873
 Vibration     7          0.793              1.401              0.854
 Vibration     8          0.807              1.366              0.803
 Vibration     9          0.907              1.136              0.540

 Optimization completed.
    -- Stationary point found.
 Normal termination of Gaussian 09 at Tue Mar  6 11:39:54 2018.
