 Gaussian 09, Revision B.01,
 Gaussian 09:  EM64L-G09RevB.01 12-Aug-2010

 -------------------------------------------------
 #p Temperature=298.15 opt freq UB3LYP/aug-cc-pVDZ
 -------------------------------------------------

 ----------------------------------------
 N-O-Pyridine-4-UB3LYP-aug-cc-pVDZ-Duplet
 ----------------------------------------
 Symbolic Z-matrix:
 Charge =  0 Multiplicity = 2

 SCF Done:  E(UB3LYP) =  -322.791537320     A.U. after   20 cycles
 SCF Done:  E(UB3LYP) =  -322.802150543     A.U. after   18 cycles
 SCF Done:  E(UB3LYP) =  -322.802905078     A.U. after   15 cycles
 SCF Done:  E(UB3LYP) =  -322.802967308     A.U. after   13 cycles
 SCF Done:  E(UB3LYP) =  -322.802968512     A.U. after   23 cycles
 Optimization completed.
    -- Stationary point found.
 Normal termination of Gaussian 09 at Tue Mar  6 11:46:01 2018.

 ----------------------------------------------------------------------
 #P Geom=AllCheck Guess=TCheck SCRF=Check GenChk UB3LYP/Aug-CC-pVDZ Fre
 q
 ----------------------------------------------------------------------

 N-O-Pyridine-4-UB3LYP-aug-cc-pVDZ-Duplet
 ----------------------------------------
 Redundant internal coordinates taken from checkpoint file:
 N-O-Pyridine-4-UB3LYP-aug-cc-pVDZ-Duplet.chk
 Charge =  0 Multiplicity = 2

                         Standard orientation:
 ---------------------------------------------------------------------
 Center     Atomic      Atomic             Coordinates (Angstroms)
 Number     Number       Type             X           Y           Z
 ---------------------------------------------------------------------
      1          6           0        0.222384   -1.186534   -0.000003
      2          6           0       -1.169898   -1.214938    0.000002
      3          6           0       -1.824112    0.000002    0.000002
      4          6           0       -1.169904    1.214928    0.000000
      5          6           0        0.222388    1.186533   -0.000001
      6          1           0        0.857572   -2.068317   -0.000005
      7          1           0       -1.686914   -2.174132    0.000007
      8          1           0        0.857579    2.068331    0.000004
      9          1           0       -1.686920    2.174141   -0.000001
     10          7           0        0.914133    0.000008   -0.000008
     11          8           0        2.196826   -0.000004    0.000006
 ---------------------------------------------------------------------

 SCF Done:  E(UB3LYP) =  -322.802968512     A.U. after    1 cycles

 The electronic state is 2-A.
 Alpha  occ. eigenvalues --  -19.12616 -14.49026 -10.25658 -10.25656 -10.24823
 Alpha  occ. eigenvalues --  -10.23815 -10.23812  -1.11807  -0.92061  -0.81252
 Alpha  occ. eigenvalues --   -0.81166  -0.68933  -0.64837  -0.53826  -0.53673
 Alpha  occ. eigenvalues --   -0.50460  -0.48333  -0.47319  -0.45133  -0.41533
 Alpha  occ. eigenvalues --   -0.36760  -0.30378  -0.28611  -0.26216  -0.23208
 Alpha virt. eigenvalues --   -0.06204  -0.05500  -0.01353  -0.00050   0.01523
 Alpha virt. eigenvalues --    0.03008   0.03542   0.04090   0.05565   0.06699
 Alpha virt. eigenvalues --    0.07130   0.08088   0.08128   0.08699   0.08874

  Beta  occ. eigenvalues --  -19.12740 -14.49103 -10.25506 -10.25503 -10.23833
  Beta  occ. eigenvalues --  -10.23832 -10.23222  -1.11954  -0.91625  -0.80840
  Beta  occ. eigenvalues --   -0.80079  -0.68698  -0.63517  -0.52991  -0.52971
  Beta  occ. eigenvalues --   -0.49752  -0.48522  -0.46966  -0.44502  -0.40945
  Beta  occ. eigenvalues --   -0.36152  -0.30300  -0.26307  -0.23106
  Beta virt. eigenvalues --   -0.12372  -0.05510  -0.05467  -0.01284  -0.00050
  Beta virt. eigenvalues --    0.01736   0.03008   0.03882   0.04103   0.05795
  Beta virt. eigenvalues --    0.07104   0.07146   0.08069   0.08299   0.08790

 Mulliken atomic charges:
              1
     1  C    0.552601
     2  C    1.351343
     3  C   -0.897239
     4  C    1.351296
     5  C    0.552565
     6  H   -0.615847
     7  H   -0.566907
     8  H   -0.615819
     9  H   -0.566878
    10  N    0.284151
    11  O   -0.829266
 Sum of Mulliken atomic charges =   0.00000

 Dipole moment (field-independent basis, Debye):
    X=             -3.4557    Y=              0.0000    Z=              0.0000  Tot=              3.4557
 Quadrupole moment (field-independent basis, Debye-Ang):
   XX=            -49.8834   YY=            -31.5647   ZZ=            -42.5071
   XY=              0.0001   XZ=              0.0000   YZ=              0.0000

  Exact polarizability:  96.471   0.000  79.343   0.000   0.000  42.118
 Approx polarizability: 185.904  -0.001 132.701   0.000   0.000  62.697

                     1                      2                      3
                     A                      A                      A
 Frequencies --   219.9212               412.1097               475.1213
 Red. masses --     7.5309                 2.8725                 6.4221
 Frc consts  --     0.2146                 0.2874                 0.8542
 IR Inten    --     9.6053                 0.0000                 5.3963

                     4                      5                      6
                     A                      A                      A
 Frequencies --   481.8006               550.5419               629.3857
 Red. masses --     3.0978                 9.3797                 7.2371
 Frc consts  --     0.4237                 1.6750                 1.6891
 IR Inten    --    15.9181                 2.5270                 0.0799

                     7                      8                      9
                     A                      A                      A
 Frequencies --   671.1485               798.5063               817.9226
 Red. masses --     2.7054                 1.2449                 1.6864
 Frc consts  --     0.7180                 0.4677                 0.6647
 IR Inten    --     6.4270                 0.0001                57.2813

                    10                     11                     12
                     A                      A                      A
 Frequencies --   836.8376               921.9201               942.9381
 Red. masses --     5.3318                 1.3869                 1.3744
 Frc consts  --     2.1999                 0.6945                 0.7200
 IR Inten    --    22.4625                 0.5980                 0.0000

                    13                     14                     15
                     A                      A                      A
 Frequencies --  1006.4580              1055.7436              1094.0561
 Red. masses --     6.7034                 2.0392                 1.2930
 Frc consts  --     4.0007                 1.3392                 0.9118
 IR Inten    --    33.3398                 1.5600                 5.3093

                    16                     17                     18
                     A                      A                      A
 Frequencies --  1165.1005              1251.0083              1288.2093
 Red. masses --     1.1490                10.7768                 1.2755
 Frc consts  --     0.9190                 9.9371                 1.2471
 IR Inten    --    26.4312                 1.9681                 0.0142

                    19                     20                     21
                     A                      A                      A
 Frequencies --  1316.1964              1428.4554              1455.9179
 Red. masses --     6.8427                 2.9230                 2.2818
 Frc consts  --     6.9842                 3.5141                 2.8497
 IR Inten    --   187.2572                 4.9340                90.7590

                    22                     23                     24
                     A                      A                      A
 Frequencies --  1581.6019              1599.9877              3198.4569
 Red. masses --     8.5183                 5.4222                 1.0892
 Frc consts  --    12.5545                 8.1782                 6.5653
 IR Inten    --     0.0852                43.9955                 0.4064

                    25                     26                     27
                     A                      A                      A
 Frequencies --  3198.6956              3243.2912              3243.7126
 Red. masses --     1.0907                 1.0938                 1.0952
 Frc consts  --     6.5754                 6.7790                 6.7894
 IR Inten    --     0.0717                 1.3857                 0.1848

 - Thermochemistry -
 -------------------
 Temperature   298.150 Kelvin.  Pressure   1.00000 Atm.
 Atom     1 has atomic number  6 and mass  12.00000

 Molecular mass:    94.02929 amu.
 Principal axes and moments of inertia in atomic units:
                           1         2         3
     Eigenvalues --   311.98527 607.24897 919.23424
           X            1.00000   0.00000   0.00000
           Y            0.00000   1.00000   0.00000
           Z            0.00000   0.00000   1.00000
 This molecule is an asymmetric top.
 Rotational symmetry number  1.
 Rotational temperatures (Kelvin)      0.27762     0.14263     0.09422
 Rotational constants (GHZ):           5.78470     2.97200     1.96331
 Zero-point vibrational energy     208658.9 (Joules/Mol)
                                   49.87068 (Kcal/Mol)
 Warning -- explicit consideration of   5 degrees of freedom as
           vibrations may cause significant error
 Vibrational temperatures:    316.42   592.93   683.59   693.20   792.11
          (Kelvin)            905.54   965.63  1148.87  1176.81  1204.02
                             1326.44  1356.68  1448.07  1518.98  1574.10
                             1676.32  1799.92  1853.44  1893.71  2055.23
                             2094.74  2275.57  2302.02  4601.86  4602.20
                             4666.37  4666.97

 Zero-point correction=                           0.079474 (Hartree/Particle)
 Thermal correction to Energy=                    0.084556
 Thermal correction to Enthalpy=                  0.085500
 Thermal correction to Gibbs Free Energy=         0.050150
 Sum of electronic and zero-point Energies=           -322.723495
 Sum of electronic and thermal Energies=              -322.718413
 Sum of electronic and thermal Enthalpies=            -322.717468
 Sum of electronic and thermal Free Energies=         -322.752819

                     E (Thermal)             CV                S
                      KCal/Mol        Cal/Mol-Kelvin    Cal/Mol-Kelvin
 Total                   53.060             19.552             74.401
 Electronic               0.000              0.000              1.377
 Translational            0.889              2.981             39.535
 Rotational               0.889              2.981             26.657
 Vibrational             51.282             13.591              6.832
 Vibration     1          0.647              1.811              1.960
 Vibration     2          0.776              1.444              0.919
 Vibration     3          0.832              1.305              0.723
 Vibration     4          0.838              1.290              0.705
 Vibration     5          0.906              1.139              0.543

 Optimization completed.
    -- Stationary point found.
 Normal termination of Gaussian 09 at Tue Mar  6 11:50:46 2018.
