 Gaussian 09, Revision B.01,
 Gaussian 09:  EM64L-G09RevB.01 12-Aug-2010

 -------------------------------------------------
 #p Temperature=298.15 opt freq UB3LYP/aug-cc-pVDZ
 -------------------------------------------------

 ----------------------------------------
 N-O-Pyridine-2-UB3LYP-aug-cc-pVDZ-Duplet
 ----------------------------------------
 Symbolic Z-matrix:
 Charge =  0 Multiplicity = 2

 SCF Done:  E(UB3LYP) =  -322.786135186     A.U. after   22 cycles
 SCF Done:  E(UB3LYP) =  -322.796648499     A.U. after   19 cycles
 SCF Done:  E(UB3LYP) =  -322.797068879     A.U. after   17 cycles
 SCF Done:  E(UB3LYP) =  -322.797121868     A.U. after   22 cycles
 SCF Done:  E(UB3LYP) =  -322.797126950     A.U. after   15 cycles
 SCF Done:  E(UB3LYP) =  -322.797128307     A.U. after   13 cycles
 Optimization completed.
    -- Stationary point found.
 Normal termination of Gaussian 09 at Tue Mar  6 10:34:34 2018.

 ----------------------------------------------------------------------
 #P Geom=AllCheck Guess=TCheck SCRF=Check GenChk UB3LYP/Aug-CC-pVDZ Fre
 q
 ----------------------------------------------------------------------

 N-O-Pyridine-2-UB3LYP-aug-cc-pVDZ-Duplet
 ----------------------------------------
 Redundant internal coordinates taken from checkpoint file:
 N-O-Pyridine-2-UB3LYP-aug-cc-pVDZ-Duplet.chk
 Charge =  0 Multiplicity = 2

                         Standard orientation:
 ---------------------------------------------------------------------
 Center     Atomic      Atomic             Coordinates (Angstroms)
 Number     Number       Type             X           Y           Z
 ---------------------------------------------------------------------
      1          6           0        0.229907   -1.185165   -0.000048
      2          6           0       -1.142254   -1.208141    0.000290
      3          6           0       -1.805542    0.030917   -0.000059
      4          1           0       -2.893695    0.075676   -0.000541
      5          1           0       -1.682444   -2.154166    0.000380
      6          6           0       -1.028859    1.195114    0.000038
      7          1           0       -1.498419    2.178113    0.000170
      8          6           0        0.355591    1.130749    0.000100
      9          1           0        1.024627    1.987908    0.000631
     10          7           0        1.010636   -0.084353   -0.000667
     11          8           0        2.290303   -0.159738    0.000264
 ---------------------------------------------------------------------

 SCF Done:  E(UB3LYP) =  -322.797128307     A.U. after    1 cycles

 The electronic state is 2-A.
 Alpha  occ. eigenvalues --  -19.13114 -14.49688 -10.27729 -10.25501 -10.24013
 Alpha  occ. eigenvalues --  -10.23262 -10.23210  -1.12374  -0.92582  -0.81856
 Alpha  occ. eigenvalues --   -0.80641  -0.68737  -0.65379  -0.55037  -0.53083
 Alpha  occ. eigenvalues --   -0.49739  -0.48860  -0.47347  -0.43796  -0.41173
 Alpha  occ. eigenvalues --   -0.36378  -0.30538  -0.30270  -0.26565  -0.23568
 Alpha virt. eigenvalues --   -0.06572  -0.05116  -0.01851  -0.00003   0.01191
 Alpha virt. eigenvalues --    0.03050   0.03878   0.03973   0.05346   0.06845
 Alpha virt. eigenvalues --    0.07434   0.07744   0.08090   0.08577   0.09100

  Beta  occ. eigenvalues --  -19.13162 -14.49710 -10.26035 -10.25410 -10.24008
  Beta  occ. eigenvalues --  -10.23291 -10.23094  -1.12147  -0.91953  -0.81607
  Beta  occ. eigenvalues --   -0.79527  -0.68171  -0.64456  -0.54491  -0.52470
  Beta  occ. eigenvalues --   -0.49100  -0.48755  -0.47204  -0.42818  -0.40881
  Beta  occ. eigenvalues --   -0.36444  -0.29857  -0.26417  -0.23480
  Beta virt. eigenvalues --   -0.13371  -0.06630  -0.04042  -0.01827   0.00027
  Beta virt. eigenvalues --    0.01324   0.03057   0.03861   0.04300   0.05550
  Beta virt. eigenvalues --    0.06977   0.07477   0.07853   0.08114   0.08738

 Mulliken atomic charges:
              1
     1  C   -0.553186
     2  C    1.197771
     3  C    0.697788
     4  H   -0.672579
     5  H   -0.587075
     6  C    1.234863
     7  H   -0.683047
     8  C    0.457062
     9  H   -0.607787
    10  N    0.349240
    11  O   -0.833049
 Sum of Mulliken atomic charges =   0.00000

 Dipole moment (field-independent basis, Debye):
    X=             -4.7745    Y=              1.0196    Z=             -0.0003  Tot=              4.8822
 Quadrupole moment (field-independent basis, Debye-Ang):
   XX=            -46.2735   YY=            -34.8575   ZZ=            -42.5191
   XY=              2.4131   XZ=              0.0002   YZ=              0.0008

  Exact polarizability: 102.536   0.282  75.791   0.007   0.001  42.287
 Approx polarizability: 201.036  -1.835 126.602   0.003   0.001  62.991

                     1                      2                      3
                     A                      A                      A
 Frequencies --   199.2163               400.7120               420.5633
 Red. masses --     6.5455                 3.3089                 7.8530
 Frc consts  --     0.1531                 0.3130                 0.8184
 IR Inten    --     1.2971                 5.0219                 5.5891

                     4                      5                      6
                     A                      A                      A
 Frequencies --   526.3725               532.0889               641.4822
 Red. masses --     3.4459                 8.4645                 7.0762
 Frc consts  --     0.5625                 1.4119                 1.7156
 IR Inten    --     1.5138                 2.0280                 0.0351

                     7                      8                      9
                     A                      A                      A
 Frequencies --   678.6902               744.2781               837.9792
 Red. masses --     2.8522                 1.3556                 1.4050
 Frc consts  --     0.7741                 0.4424                 0.5813
 IR Inten    --     7.4565                62.0576                 5.8959

                    10                     11                     12
                     A                      A                      A
 Frequencies --   853.8829               927.1059               970.3599
 Red. masses --     5.7624                 1.3891                 1.3294
 Frc consts  --     2.4754                 0.7035                 0.7375
 IR Inten    --    18.7271                 2.8068                 0.1123

                    13                     14                     15
                     A                      A                      A
 Frequencies --  1005.5693              1047.6865              1102.6536
 Red. masses --     6.5487                 1.9020                 1.7669
 Frc consts  --     3.9015                 1.2300                 1.2658
 IR Inten    --    20.7721                 6.1682                 2.9166

                    16                     17                     18
                     A                      A                      A
 Frequencies --  1153.2489              1214.6226              1279.6509
 Red. masses --     1.0844                 1.9512                 4.2168
 Frc consts  --     0.8497                 1.6960                 4.0684
 IR Inten    --     0.4903                33.7784               163.0498

                    19                     20                     21
                     A                      A                      A
 Frequencies --  1307.5332              1426.4408              1457.5360
 Red. masses --     3.0653                 2.1137                 3.1834
 Frc consts  --     3.0877                 2.5340                 3.9846
 IR Inten    --    82.5964                78.5788                10.9602

                    22                     23                     24
                     A                      A                      A
 Frequencies --  1542.1291              1629.9905              3196.4746
 Red. masses --     4.5130                 6.4068                 1.0857
 Frc consts  --     6.3235                10.0291                 6.5357
 IR Inten    --     5.1277                17.7335                 0.7128

                    25                     26                     27
                     A                      A                      A
 Frequencies --  3205.2871              3215.9161              3238.8006
 Red. masses --     1.0910                 1.0974                 1.0954
 Frc consts  --     6.6039                 6.6871                 6.7702
 IR Inten    --     1.2545                 1.5889                 1.1713

 - Thermochemistry -
 -------------------
 Temperature   298.150 Kelvin.  Pressure   1.00000 Atm.
 Atom     1 has atomic number  6 and mass  12.00000

 Molecular mass:    94.02929 amu.
 Principal axes and moments of inertia in atomic units:
                           1         2         3
     Eigenvalues --   288.29954 650.72895 939.02842
           X            0.99980   0.02020   0.00001
           Y           -0.02020   0.99980   0.00001
           Z           -0.00001  -0.00001   1.00000
 This molecule is an asymmetric top.
 Rotational symmetry number  1.
 Rotational temperatures (Kelvin)      0.30043     0.13310     0.09224
 Rotational constants (GHZ):           6.25995     2.77341     1.92192
 Zero-point vibrational energy     207888.7 (Joules/Mol)
                                   49.68658 (Kcal/Mol)
 Warning -- explicit consideration of   5 degrees of freedom as
           vibrations may cause significant error
 Vibrational temperatures:    286.63   576.53   605.10   757.33   765.56
          (Kelvin)            922.95   976.48  1070.85  1205.66  1228.55
                             1333.90  1396.13  1446.79  1507.39  1586.47
                             1659.27  1747.57  1841.13  1881.25  2052.33
                             2097.07  2218.78  2345.19  4599.01  4611.69
                             4626.98  4659.91

 Zero-point correction=                           0.079181 (Hartree/Particle)
 Thermal correction to Energy=                    0.084329
 Thermal correction to Enthalpy=                  0.085273
 Thermal correction to Gibbs Free Energy=         0.049770
 Sum of electronic and zero-point Energies=           -322.717948
 Sum of electronic and thermal Energies=              -322.712800
 Sum of electronic and thermal Enthalpies=            -322.711855
 Sum of electronic and thermal Free Energies=         -322.747358

                     E (Thermal)             CV                S
                      KCal/Mol        Cal/Mol-Kelvin    Cal/Mol-Kelvin
 Total                   52.917             19.669             74.722
 Electronic               0.000              0.000              1.377
 Translational            0.889              2.981             39.535
 Rotational               0.889              2.981             26.668
 Vibrational             51.140             13.708              7.141
 Vibration     1          0.637              1.841              2.140
 Vibration     2          0.767              1.469              0.960
 Vibration     3          0.783              1.426              0.890
 Vibration     4          0.881              1.192              0.595
 Vibration     5          0.887              1.179              0.583

 Optimization completed.
    -- Stationary point found.
 Normal termination of Gaussian 09 at Tue Mar  6 10:39:14 2018.
