 Gaussian 09, Revision B.01,
 Gaussian 09:  EM64L-G09RevB.01 12-Aug-2010

 -------------------------------------------------
 #p Temperature=298.15 opt freq UB3LYP/aug-cc-pVDZ
 -------------------------------------------------

 ------------------------------------------
 N-O-Pyridine-3+-UB3LYP-aug-cc-pVDZ-Triplet
 ------------------------------------------
 Symbolic Z-matrix:
 Charge =  1 Multiplicity = 3

 SCF Done:  E(UB3LYP) =  -322.482106722     A.U. after   21 cycles
 SCF Done:  E(UB3LYP) =  -322.492751241     A.U. after   19 cycles
 SCF Done:  E(UB3LYP) =  -322.493650779     A.U. after   18 cycles
 SCF Done:  E(UB3LYP) =  -322.493795535     A.U. after   21 cycles
 SCF Done:  E(UB3LYP) =  -322.493801567     A.U. after   23 cycles
 SCF Done:  E(UB3LYP) =  -322.493802038     A.U. after   23 cycles
 Optimization completed.
    -- Stationary point found.
 Normal termination of Gaussian 09 at Fri Jan 21 03:38:49 2005.

 ----------------------------------------------------------------------
 #P Geom=AllCheck Guess=TCheck SCRF=Check GenChk UB3LYP/Aug-CC-pVDZ Fre
 q
 ----------------------------------------------------------------------

 N-O-Pyridine-3+-UB3LYP-aug-cc-pVDZ-Triplet
 ------------------------------------------
 Redundant internal coordinates taken from checkpoint file:
 N-O-Pyridine-3+-UB3LYP-aug-cc-pVDZ-Triplet.chk
 Charge =  1 Multiplicity = 3

                         Standard orientation:
 ---------------------------------------------------------------------
 Center     Atomic      Atomic             Coordinates (Angstroms)
 Number     Number       Type             X           Y           Z
 ---------------------------------------------------------------------
      1          6           0       -0.378214    1.247883   -0.000085
      2          6           0        0.978158    1.309363    0.000198
      3          6           0        1.834480    0.216402   -0.000063
      4          6           0        1.232032   -1.064401    0.000052
      5          1           0       -1.093485    2.069262    0.000356
      6          1           0        1.841961   -1.967742    0.000055
      7          1           0        2.920576    0.328522    0.000074
      8          7           0       -0.928318   -0.033290   -0.000496
      9          6           0       -0.141468   -1.174183    0.000045
     10          1           0       -0.703955   -2.106010    0.000314
     11          8           0       -2.202099   -0.162674    0.000224
 ---------------------------------------------------------------------

 SCF Done:  E(UB3LYP) =  -322.493802038     A.U. after    1 cycles

 The electronic state is 3-A.
 Alpha  occ. eigenvalues --  -19.44693 -14.72393 -10.48491 -10.48403 -10.46602
 Alpha  occ. eigenvalues --  -10.46316 -10.44426  -1.39287  -1.16057  -1.03859
 Alpha  occ. eigenvalues --   -1.03060  -0.89568  -0.87615  -0.77348  -0.75181
 Alpha  occ. eigenvalues --   -0.73892  -0.73229  -0.69065  -0.65582  -0.62784
 Alpha  occ. eigenvalues --   -0.60348  -0.55039  -0.51752  -0.51040  -0.48939
 Alpha virt. eigenvalues --   -0.29797  -0.25556  -0.15217  -0.12812  -0.12506
 Alpha virt. eigenvalues --   -0.12044  -0.11616  -0.09659  -0.09476  -0.08909
 Alpha virt. eigenvalues --   -0.07125  -0.06173  -0.05543  -0.05293  -0.04842

  Beta  occ. eigenvalues --  -19.42764 -14.72231 -10.48406 -10.48272 -10.46283
  Beta  occ. eigenvalues --  -10.44747 -10.44390  -1.36803  -1.13947  -1.02573
  Beta  occ. eigenvalues --   -1.01470  -0.88526  -0.86117  -0.76147  -0.74304
  Beta  occ. eigenvalues --   -0.71643  -0.70238  -0.68584  -0.64387  -0.62034
  Beta  occ. eigenvalues --   -0.56096  -0.52564  -0.50800
  Beta virt. eigenvalues --   -0.38881  -0.32430  -0.26782  -0.24054  -0.15114
  Beta virt. eigenvalues --   -0.12596  -0.11906  -0.11412  -0.11368  -0.09319
  Beta virt. eigenvalues --   -0.09062  -0.08372  -0.06392  -0.06116  -0.05151

 Mulliken atomic charges:
              1
     1  C    0.900254
     2  C   -0.241848
     3  C    0.885852
     4  C    1.271206
     5  H   -0.469263
     6  H   -0.610026
     7  H   -0.468184
     8  N    0.165871
     9  C    0.584407
    10  H   -0.542336
    11  O   -0.475934
 Sum of Mulliken atomic charges =   1.00000

 Dipole moment (field-independent basis, Debye):
    X=              2.7478    Y=             -0.5507    Z=              0.0002  Tot=              2.8025
 Quadrupole moment (field-independent basis, Debye-Ang):
   XX=            -26.5205   YY=            -25.8818   ZZ=            -38.3275
   XY=             -2.5307   XZ=              0.0004   YZ=              0.0002

  Exact polarizability:  89.135  -0.172  67.943  -0.001  -0.001  34.853
 Approx polarizability: 168.709   2.511 117.033  -0.001  -0.002  52.938

                     1                      2                      3
                     A                      A                      A
 Frequencies --   205.1443               377.8378               468.7660
 Red. masses --     4.9393                 3.0746                 6.8700
 Frc consts  --     0.1225                 0.2586                 0.8894
 IR Inten    --     1.6980                 2.3162                 6.4613

                     4                      5                      6
                     A                      A                      A
 Frequencies --   482.6980               529.2414               621.2452
 Red. masses --     4.4551                 8.0212                 7.4729
 Frc consts  --     0.6116                 1.3237                 1.6993
 IR Inten    --     1.5481                 2.2034                 0.4168

                     7                      8                      9
                     A                      A                      A
 Frequencies --   626.3652               813.3970               835.6290
 Red. masses --     2.1277                 1.4284                 7.3284
 Frc consts  --     0.4918                 0.5568                 3.0150
 IR Inten    --    35.0972                31.8683                 2.7005

                    10                     11                     12
                     A                      A                      A
 Frequencies --   881.7650               962.0520               988.1053
 Red. masses --     1.4841                 1.3606                 5.3900
 Frc consts  --     0.6798                 0.7420                 3.1006
 IR Inten    --     8.8226                 3.3074                 1.6003

                    13                     14                     15
                     A                      A                      A
 Frequencies --  1006.6404              1050.4769              1088.2314
 Red. masses --     1.4279                 2.3162                 1.6386
 Frc consts  --     0.8525                 1.5059                 1.1433
 IR Inten    --     0.0552                 0.9346                14.5974

                    16                     17                     18
                     A                      A                      A
 Frequencies --  1157.8622              1228.1887              1281.2854
 Red. masses --     1.2628                 2.8910                 3.6575
 Frc consts  --     0.9975                 2.5694                 3.5378
 IR Inten    --     4.6487                20.4004                 6.5043

                    19                     20                     21
                     A                      A                      A
 Frequencies --  1302.5201              1421.5349              1473.5148
 Red. masses --     1.7120                 1.8414                 3.4471
 Frc consts  --     1.7113                 2.1924                 4.4098
 IR Inten    --     1.7298                11.3816                 6.8912

                    22                     23                     24
                     A                      A                      A
 Frequencies --  1498.3895              1628.4958              3196.1613
 Red. masses --     4.2937                 6.5303                 1.0911
 Frc consts  --     5.6798                10.2037                 6.5671
 IR Inten    --    69.0147                63.8600                15.4837

                    25                     26                     27
                     A                      A                      A
 Frequencies --  3215.6582              3231.5923              3245.0342
 Red. masses --     1.0948                 1.0967                 1.0989
 Frc consts  --     6.6700                 6.7481                 6.8177
 IR Inten    --    19.9824                46.0124                31.6421

 - Thermochemistry -
 -------------------
 Temperature   298.150 Kelvin.  Pressure   1.00000 Atm.
 Atom     1 has atomic number  6 and mass  12.00000

 Molecular mass:    94.02929 amu.
 Principal axes and moments of inertia in atomic units:
                           1         2         3
     Eigenvalues --   296.53028 626.46037 922.99061
           X            0.99929  -0.03757   0.00000
           Y            0.03757   0.99929   0.00000
           Z            0.00000   0.00000   1.00000
 This molecule is an asymmetric top.
 Rotational symmetry number  1.
 Rotational temperatures (Kelvin)      0.29209     0.13826     0.09384
 Rotational constants (GHZ):           6.08620     2.88085     1.95532
 Zero-point vibrational energy     208256.9 (Joules/Mol)
                                   49.77459 (Kcal/Mol)
 Warning -- explicit consideration of   5 degrees of freedom as
           vibrations may cause significant error
 Vibrational temperatures:    295.16   543.62   674.45   694.49   761.46
          (Kelvin)            893.83   901.20  1170.30  1202.28  1268.66
                             1384.18  1421.66  1448.33  1511.40  1565.72
                             1665.90  1767.09  1843.48  1874.03  2045.27
                             2120.06  2155.85  2343.04  4598.56  4626.61
                             4649.53  4668.87

 Zero-point correction=                           0.079321 (Hartree/Particle)
 Thermal correction to Energy=                    0.084474
 Thermal correction to Enthalpy=                  0.085418
 Thermal correction to Gibbs Free Energy=         0.049543
 Sum of electronic and zero-point Energies=           -322.414481
 Sum of electronic and thermal Energies=              -322.409328
 Sum of electronic and thermal Enthalpies=            -322.408384
 Sum of electronic and thermal Free Energies=         -322.444259

                     E (Thermal)             CV                S
                      KCal/Mol        Cal/Mol-Kelvin    Cal/Mol-Kelvin
 Total                   53.008             19.642             75.505
 Electronic               0.000              0.000              2.183
 Translational            0.889              2.981             39.535
 Rotational               0.889              2.981             26.641
 Vibrational             51.231             13.680              7.146
 Vibration     1          0.640              1.833              2.086
 Vibration     2          0.748              1.517              1.048
 Vibration     3          0.826              1.319              0.741
 Vibration     4          0.839              1.288              0.703
 Vibration     5          0.884              1.185              0.589

 Optimization completed.
    -- Stationary point found.
 Normal termination of Gaussian 09 at Fri Jan 21 03:43:17 2005.
