 Gaussian 09, Revision B.01,
 Gaussian 09:  EM64L-G09RevB.01 12-Aug-2010

 -------------------------------------------------
 #p Temperature=298.15 opt freq UB3LYP/aug-cc-pVDZ
 -------------------------------------------------

 ---------------------------------------------
 N-O-Pyridine-3-N2+-UB3LYP-aug-cc-pVDZ-Singlet
 ---------------------------------------------
 Symbolic Z-matrix:
 Charge =  1 Multiplicity = 1

 SCF Done:  E(UB3LYP) =  -432.057473712     A.U. after   18 cycles
 SCF Done:  E(UB3LYP) =  -432.070641875     A.U. after   14 cycles
 SCF Done:  E(UB3LYP) =  -432.071704453     A.U. after   13 cycles
 SCF Done:  E(UB3LYP) =  -432.071794328     A.U. after   12 cycles
 SCF Done:  E(UB3LYP) =  -432.071798450     A.U. after   11 cycles
 Optimization completed.
    -- Stationary point found.
 Normal termination of Gaussian 09 at Tue Mar  6 06:31:51 2018.

 ----------------------------------------------------------------------
 #P Geom=AllCheck Guess=TCheck SCRF=Check GenChk UB3LYP/Aug-CC-pVDZ Fre
 q
 ----------------------------------------------------------------------

 N-O-Pyridine-3-N2+-UB3LYP-aug-cc-pVDZ-Singlet
 ---------------------------------------------
 Redundant internal coordinates taken from checkpoint file:
 N-O-Pyridine-3-N2+-UB3LYP-aug-cc-pVDZ-Singlet.chk
 Charge =  1 Multiplicity = 1

                         Standard orientation:
 ---------------------------------------------------------------------
 Center     Atomic      Atomic             Coordinates (Angstroms)
 Number     Number       Type             X           Y           Z
 ---------------------------------------------------------------------
      1          6           0       -0.098284   -0.944120    0.000402
      2          6           0        0.862924    0.074872   -0.000293
      3          6           0        0.575858    1.448554   -0.000331
      4          6           0       -0.786029    1.760003    0.000194
      5          1           0        0.110353   -2.010594    0.000796
      6          7           0        2.192333   -0.323258   -0.000038
      7          7           0        3.258282   -0.641877    0.000180
      8          1           0       -1.112251    2.799232    0.001023
      9          1           0        1.356880    2.205067   -0.000322
     10          7           0       -1.422788   -0.588077   -0.000554
     11          6           0       -1.748624    0.765368    0.000092
     12          1           0       -2.821181    0.948687    0.000898
     13          8           0       -2.320458   -1.462246    0.000013
 ---------------------------------------------------------------------

 SCF Done:  E(UB3LYP) =  -432.071798450     A.U. after    1 cycles

 The electronic state is 1-A.
 Alpha  occ. eigenvalues --  -19.31772 -14.75248 -14.71929 -14.68715 -10.50756
 Alpha  occ. eigenvalues --  -10.45777 -10.44321 -10.43473 -10.41757  -1.40778
 Alpha  occ. eigenvalues --   -1.32171  -1.14318  -1.07634  -1.00759  -0.94958
 Alpha  occ. eigenvalues --   -0.86838  -0.82490  -0.76214  -0.75702  -0.73468
 Alpha  occ. eigenvalues --   -0.71870  -0.70391  -0.67404  -0.66447  -0.66061
 Alpha  occ. eigenvalues --   -0.60869  -0.60183  -0.56619  -0.49865  -0.44541
 Alpha  occ. eigenvalues --   -0.41898
 Alpha virt. eigenvalues --   -0.32255  -0.30542  -0.24696  -0.20944  -0.16576
 Alpha virt. eigenvalues --   -0.12864  -0.12395  -0.11475  -0.11321  -0.09393
 Alpha virt. eigenvalues --   -0.08529  -0.08197  -0.07327  -0.06424  -0.05887

  Beta  occ. eigenvalues --  -19.31772 -14.75248 -14.71929 -14.68715 -10.50756
  Beta  occ. eigenvalues --  -10.45777 -10.44321 -10.43473 -10.41757  -1.40778
  Beta  occ. eigenvalues --   -1.32171  -1.14318  -1.07634  -1.00759  -0.94958
  Beta  occ. eigenvalues --   -0.86838  -0.82490  -0.76214  -0.75702  -0.73468
  Beta  occ. eigenvalues --   -0.71870  -0.70391  -0.67404  -0.66447  -0.66061
  Beta  occ. eigenvalues --   -0.60869  -0.60183  -0.56619  -0.49865  -0.44541
  Beta  occ. eigenvalues --   -0.41898
  Beta virt. eigenvalues --   -0.32255  -0.30542  -0.24696  -0.20944  -0.16576
  Beta virt. eigenvalues --   -0.12864  -0.12395  -0.11475  -0.11321  -0.09393
  Beta virt. eigenvalues --   -0.08529  -0.08197  -0.07327  -0.06424  -0.05887

 Mulliken atomic charges:
              1
     1  C    0.673577
     2  C    0.777898
     3  C    1.132521
     4  C    0.961382
     5  H   -0.666064
     6  N    0.469898
     7  N   -0.577784
     8  H   -0.623240
     9  H   -0.692047
    10  N    0.237202
    11  C    0.597315
    12  H   -0.586816
    13  O   -0.703842
 Sum of Mulliken atomic charges =   1.00000

 Dipole moment (field-independent basis, Debye):
    X=              4.8579    Y=              3.0881    Z=              0.0014  Tot=              5.7563
 Quadrupole moment (field-independent basis, Debye-Ang):
   XX=            -32.1817   YY=            -37.5496   ZZ=            -49.2323
   XY=             -8.9146   XZ=             -0.0032   YZ=              0.0012

  Exact polarizability: 132.681  -1.239  93.908   0.001  -0.003  41.901
 Approx polarizability: 272.107   5.356 187.739   0.009  -0.014  64.933

                     1                      2                      3
                     A                      A                      A
 Frequencies --   143.7678               159.0530               185.7802
 Red. masses --     6.4144                 9.3452                 4.8591
 Frc consts  --     0.0781                 0.1393                 0.0988
 IR Inten    --     0.1471                 2.2163                 4.0692

                     4                      5                      6
                     A                      A                      A
 Frequencies --   395.7716               437.3459               465.7377
 Red. masses --     4.1697                10.5448                 8.5327
 Frc consts  --     0.3848                 1.1883                 1.0905
 IR Inten    --     0.0729                 2.6367                 2.3769

                     7                      8                      9
                     A                      A                      A
 Frequencies --   481.6185               541.5043               578.8688
 Red. masses --     4.4564                 8.0847                 6.4501
 Frc consts  --     0.6090                 1.3968                 1.2734
 IR Inten    --     4.4341                 5.7452                 2.1138

                    10                     11                     12
                     A                      A                      A
 Frequencies --   592.2241               648.7800               735.0346
 Red. masses --     5.9763                 2.1117                 7.8712
 Frc consts  --     1.2350                 0.5237                 2.5056
 IR Inten    --     1.7564                23.7784                 2.6026

                    13                     14                     15
                     A                      A                      A
 Frequencies --   776.7103               850.9401               921.5287
 Red. masses --     1.3198                 1.6943                 1.4045
 Frc consts  --     0.4691                 0.7228                 0.7027
 IR Inten    --    22.7731                36.5199                 1.0649

                    16                     17                     18
                     A                      A                      A
 Frequencies --   964.4338               999.6624              1009.5949
 Red. masses --     3.3735                 1.3513                 6.2235
 Frc consts  --     1.8488                 0.7956                 3.7375
 IR Inten    --     9.5468                 0.0079                35.9584

                    19                     20                     21
                     A                      A                      A
 Frequencies --  1103.5925              1121.4667              1181.4656
 Red. masses --     1.5635                 2.4952                 1.1526
 Frc consts  --     1.1220                 1.8489                 0.9479
 IR Inten    --    16.4055                44.2556                12.3792

                    22                     23                     24
                     A                      A                      A
 Frequencies --  1285.3075              1310.7430              1384.5936
 Red. masses --     6.7152                 1.3483                 3.2622
 Frc consts  --     6.5361                 1.3648                 3.6847
 IR Inten    --    30.6642                13.8408               142.9902

                    25                     26                     27
                     A                      A                      A
 Frequencies --  1473.2465              1490.7414              1534.9529
 Red. masses --     3.5802                 2.8830                 5.7179
 Frc consts  --     4.5784                 3.7749                 7.9373
 IR Inten    --    78.7165               126.7552                29.2934

                    28                     29                     30
                     A                      A                      A
 Frequencies --  1631.6598              2348.0657              3217.1020
 Red. masses --     5.5931                13.9639                 1.0917
 Frc consts  --     8.7733                45.3603                 6.6573
 IR Inten    --    59.6674               231.6500                 3.0351

                    31                     32                     33
                     A                      A                      A
 Frequencies --  3236.8467              3244.9800              3249.5767
 Red. masses --     1.0968                 1.0975                 1.0963
 Frc consts  --     6.7703                 6.8092                 6.8206
 IR Inten    --    29.7152                31.3599                29.2275

 - Thermochemistry -
 -------------------
 Temperature   298.150 Kelvin.  Pressure   1.00000 Atm.
 Atom     1 has atomic number  6 and mass  12.00000

 Molecular mass:   122.03544 amu.
 Principal axes and moments of inertia in atomic units:
                           1         2         3
     Eigenvalues --   514.361881423.773241938.13503
           X            0.99993  -0.01199  -0.00001
           Y            0.01199   0.99993   0.00001
           Z            0.00001  -0.00001   1.00000
 This molecule is an asymmetric top.
 Rotational symmetry number  1.
 Warning -- assumption of classical behavior for rotation
           may cause significant error
 Rotational temperatures (Kelvin)      0.16839     0.06083     0.04469
 Rotational constants (GHZ):           3.50870     1.26758     0.93117
 Zero-point vibrational energy     237474.9 (Joules/Mol)
                                   56.75785 (Kcal/Mol)
 Warning -- explicit consideration of  10 degrees of freedom as
           vibrations may cause significant error
 Vibrational temperatures:    206.85   228.84   267.30   569.43   629.24
          (Kelvin)            670.09   692.94   779.10   832.86   852.08
                              933.45  1057.55  1117.51  1224.31  1325.87
                             1387.60  1438.29  1452.58  1587.82  1613.54
                             1699.86  1849.27  1885.86  1992.12  2119.67
                             2144.84  2208.45  2347.59  3378.34  4628.69
                             4657.09  4668.80  4675.41

 Zero-point correction=                           0.090449 (Hartree/Particle)
 Thermal correction to Energy=                    0.097419
 Thermal correction to Enthalpy=                  0.098363
 Thermal correction to Gibbs Free Energy=         0.058853
 Sum of electronic and zero-point Energies=           -431.981349
 Sum of electronic and thermal Energies=              -431.974380
 Sum of electronic and thermal Enthalpies=            -431.973436
 Sum of electronic and thermal Free Energies=         -432.012945

                     E (Thermal)             CV                S
                      KCal/Mol        Cal/Mol-Kelvin    Cal/Mol-Kelvin
 Total                   61.131             26.421             83.155
 Electronic               0.000              0.000              0.000
 Translational            0.889              2.981             40.312
 Rotational               0.889              2.981             28.742
 Vibrational             59.354             20.460             14.102
 Vibration     1          0.616              1.909              2.753
 Vibration     2          0.621              1.892              2.561
 Vibration     3          0.632              1.859              2.270
 Vibration     4          0.763              1.479              0.978
 Vibration     5          0.798              1.389              0.835
 Vibration     6          0.823              1.326              0.750
 Vibration     7          0.838              1.291              0.706
 Vibration     8          0.897              1.158              0.562
 Vibration     9          0.935              1.077              0.487
 Vibration    10          0.950              1.048              0.463

 Optimization completed.
    -- Stationary point found.
 Normal termination of Gaussian 09 at Tue Mar  6 06:41:27 2018.
