 Gaussian 09, Revision B.01,
 Gaussian 09:  EM64L-G09RevB.01 12-Aug-2010

 -------------------------------------------------
 #p Temperature=298.15 opt freq UB3LYP/aug-cc-pVDZ
 -------------------------------------------------

 -----------------------------
 N2-UB3LYP-aug-cc-pVDZ-Triplet
 -----------------------------
 Symbolic Z-matrix:
 Charge =  0 Multiplicity = 3

 SCF Done:  E(UB3LYP) =  -109.256474990     A.U. after   11 cycles
 SCF Done:  E(UB3LYP) =  -109.284096589     A.U. after   12 cycles
 SCF Done:  E(UB3LYP) =  -109.286102215     A.U. after    9 cycles
 SCF Done:  E(UB3LYP) =  -109.286104235     A.U. after    6 cycles
 Optimization completed.
    -- Stationary point found.
 Normal termination of Gaussian 09 at Wed Mar 21 14:56:16 2018.

 ----------------------------------------------------------------------
 #P Geom=AllCheck Guess=TCheck SCRF=Check GenChk UB3LYP/Aug-CC-pVDZ Fre
 q
 ----------------------------------------------------------------------

 N2-UB3LYP-aug-cc-pVDZ-Triplet
 -----------------------------
 Redundant internal coordinates taken from checkpoint file:
 N2-UB3LYP-aug-cc-pVDZ-Triplet.chk
 Charge =  0 Multiplicity = 3

                         Standard orientation:
 ---------------------------------------------------------------------
 Center     Atomic      Atomic             Coordinates (Angstroms)
 Number     Number       Type             X           Y           Z
 ---------------------------------------------------------------------
      1          7           0        0.000000    0.000000    0.605436
      2          7           0        0.000000    0.000000   -0.605436
 ---------------------------------------------------------------------

 SCF Done:  E(UB3LYP) =  -109.286104235     A.U. after    1 cycles

 Unable to determine electronic state:  an orbital has unidentified symmetry.
 Alpha  occ. eigenvalues --  -14.47577 -14.47528  -1.08756  -0.64888  -0.49582
 Alpha  occ. eigenvalues --   -0.47495  -0.44904  -0.19933
 Alpha virt. eigenvalues --   -0.09993   0.05084   0.05369   0.08263   0.08269
 Alpha virt. eigenvalues --    0.12639   0.13753   0.14489   0.24344   0.37434
 Alpha virt. eigenvalues --    0.43640   0.43684   0.55268   0.60819   0.60902

  Beta  occ. eigenvalues --  -14.45281 -14.45240  -1.03594  -0.53180  -0.42684
  Beta  occ. eigenvalues --   -0.39158
  Beta virt. eigenvalues --   -0.31135  -0.06779  -0.03366   0.05444   0.06692
  Beta virt. eigenvalues --    0.08359   0.08839   0.12698   0.14784   0.15247
  Beta virt. eigenvalues --    0.25095   0.43032   0.44382   0.44405   0.57051

 Mulliken atomic charges:
              1
     1  N    0.000000
     2  N    0.000000
 Sum of Mulliken atomic charges =   0.00000

 Dipole moment (field-independent basis, Debye):
    X=              0.0000    Y=              0.0000    Z=              0.0000  Tot=              0.0000
 Quadrupole moment (field-independent basis, Debye-Ang):
   XX=            -11.8748   YY=            -10.5139   ZZ=            -10.3590
   XY=              0.0000   XZ=              0.0000   YZ=              0.0000

  Exact polarizability:   1.098   0.000  31.444   0.000   0.000  25.545
 Approx polarizability:  17.428   0.000  16.490   0.000   0.000  54.889

                     1
                    SGG
 Frequencies --  1820.6311
 Red. masses --    14.0031
 Frc consts  --    27.3475
 IR Inten    --     0.0000

 - Thermochemistry -
 -------------------
 Temperature   298.150 Kelvin.  Pressure   1.00000 Atm.
 Atom     1 has atomic number  7 and mass  14.00307

 Molecular mass:    28.00615 amu.
 Principal axes and moments of inertia in atomic units:
                           1         2         3
     Eigenvalues --     0.00000  36.65962  36.65962
           X            0.00000   1.00000   0.00000
           Y            0.00000   0.00000   1.00000
           Z            1.00000   0.00000   0.00000
 This molecule is a prolate symmetric top.
 Rotational symmetry number  2.
 Rotational temperature (Kelvin)      2.36265
 Rotational constant (GHZ):          49.229674
 Zero-point vibrational energy      10889.8 (Joules/Mol)
                                    2.60272 (Kcal/Mol)
 Vibrational temperatures:   2619.48
          (Kelvin)

 Zero-point correction=                           0.004148 (Hartree/Particle)
 Thermal correction to Energy=                    0.006509
 Thermal correction to Enthalpy=                  0.007454
 Thermal correction to Gibbs Free Energy=        -0.015511
 Sum of electronic and zero-point Energies=           -109.281957
 Sum of electronic and thermal Energies=              -109.279595
 Sum of electronic and thermal Enthalpies=            -109.278651
 Sum of electronic and thermal Free Energies=         -109.301616

                     E (Thermal)             CV                S
                      KCal/Mol        Cal/Mol-Kelvin    Cal/Mol-Kelvin
 Total                    4.085              4.991             48.334
 Electronic               0.000              0.000              2.183
 Translational            0.889              2.981             35.924
 Rotational               0.592              1.987             10.224
 Vibrational              2.604              0.023              0.003

 Optimization completed.
    -- Stationary point found.
 Normal termination of Gaussian 09 at Wed Mar 21 14:56:18 2018.
