 Gaussian 09, Revision B.01,
 Gaussian 09:  EM64L-G09RevB.01 12-Aug-2010

 -------------------------------------------------
 #p Temperature=298.15 opt freq UB3LYP/aug-cc-pVDZ
 -------------------------------------------------

 ------------------------------
 Ph+-UB3LYP-aug-cc-pVDZ-Triplet
 ------------------------------
 Symbolic Z-matrix:
 Charge =  1 Multiplicity = 3

 SCF Done:  E(UB3LYP) =  -231.248206058     A.U. after   19 cycles
 SCF Done:  E(UB3LYP) =  -231.251758418     A.U. after   18 cycles
 SCF Done:  E(UB3LYP) =  -231.251850131     A.U. after   17 cycles
 SCF Done:  E(UB3LYP) =  -231.251855583     A.U. after   12 cycles
 Optimization completed.
    -- Stationary point found.
 Normal termination of Gaussian 09 at Fri Jan 21 05:10:06 2005.

 ----------------------------------------------------------------------
 #P Geom=AllCheck Guess=TCheck SCRF=Check GenChk UB3LYP/Aug-CC-pVDZ Fre
 q
 ----------------------------------------------------------------------

 Ph+-UB3LYP-aug-cc-pVDZ-Triplet
 ------------------------------
 Redundant internal coordinates taken from checkpoint file:
 Ph+-UB3LYP-aug-cc-pVDZ-Triplet.chk
 Charge =  1 Multiplicity = 3

                         Standard orientation:
 ---------------------------------------------------------------------
 Center     Atomic      Atomic             Coordinates (Angstroms)
 Number     Number       Type             X           Y           Z
 ---------------------------------------------------------------------
      1          6           0        1.257289    0.619574   -0.000003
      2          6           0        1.269561   -0.759594    0.000000
      3          6           0       -0.000066   -1.381806    0.000001
      4          6           0       -1.269613   -0.759518    0.000000
      5          6           0       -1.257220    0.619653   -0.000002
      6          6           0        0.000045    1.311477    0.000002
      7          1           0        2.186269    1.191019   -0.000008
      8          1           0        2.191389   -1.342225    0.000005
      9          1           0        0.000076    2.403385    0.000014
     10          1           0       -2.186189    1.191172   -0.000002
     11          1           0       -2.191522   -1.342066    0.000000
 ---------------------------------------------------------------------

 SCF Done:  E(UB3LYP) =  -231.251855583     A.U. after    1 cycles

 The electronic state is 3-A.
 Alpha  occ. eigenvalues --  -10.48619 -10.46887 -10.43928 -10.43925 -10.43748
 Alpha  occ. eigenvalues --  -10.43746  -1.10777  -0.99694  -0.98957  -0.84293
 Alpha  occ. eigenvalues --   -0.83631  -0.74636  -0.69541  -0.67798  -0.66333
 Alpha  occ. eigenvalues --   -0.62549  -0.61898  -0.58525  -0.51396  -0.49719
 Alpha  occ. eigenvalues --   -0.48444
 Alpha virt. eigenvalues --   -0.27189  -0.24376  -0.15106  -0.12229  -0.11955
 Alpha virt. eigenvalues --   -0.10602  -0.10490  -0.09622  -0.09584  -0.09420
 Alpha virt. eigenvalues --   -0.05938  -0.05616  -0.05318  -0.04568  -0.03273

  Beta  occ. eigenvalues --  -10.46412 -10.46222 -10.43840 -10.43837 -10.43633
  Beta  occ. eigenvalues --  -10.43631  -1.08930  -0.99129  -0.95840  -0.83325
  Beta  occ. eigenvalues --   -0.81519  -0.73653  -0.68422  -0.66678  -0.65946
  Beta  occ. eigenvalues --   -0.61083  -0.58445  -0.57780  -0.49269
  Beta virt. eigenvalues --   -0.41094  -0.30974  -0.23092  -0.22349  -0.14977
  Beta virt. eigenvalues --   -0.12203  -0.11678  -0.10219  -0.09546  -0.09476
  Beta virt. eigenvalues --   -0.08900  -0.07672  -0.05944  -0.05255  -0.04790

 Mulliken atomic charges:
              1
     1  C    1.127051
     2  C    0.738526
     3  C   -0.576695
     4  C    0.738521
     5  C    1.126932
     6  C    0.684709
     7  H   -0.622880
     8  H   -0.489234
     9  H   -0.614903
    10  H   -0.622846
    11  H   -0.489181
 Sum of Mulliken atomic charges =   1.00000

 Dipole moment (field-independent basis, Debye):
    X=             -0.0001    Y=              0.9159    Z=              0.0000  Tot=              0.9159
 Quadrupole moment (field-independent basis, Debye-Ang):
   XX=            -18.9200   YY=            -22.0737   ZZ=            -34.4965
   XY=             -0.0002   XZ=              0.0000   YZ=              0.0000

  Exact polarizability:  70.803   0.000  72.264   0.000   0.000  34.940
 Approx polarizability: 110.320  -0.001 135.915   0.000   0.000  53.268

                     1                      2                      3
                     A                      A                      A
 Frequencies --   325.4491               330.3423               429.7200
 Red. masses --     2.6067                 2.8233                 7.7329
 Frc consts  --     0.1627                 0.1815                 0.8413
 IR Inten    --     0.0167                 0.0000                 0.0141

                     4                      5                      6
                     A                      A                      A
 Frequencies --   590.4351               592.6305               737.4224
 Red. masses --     1.9806                 7.0719                 1.5486
 Frc consts  --     0.4068                 1.4634                 0.4962
 IR Inten    --    19.9452                 0.5883                57.5757

                     7                      8                      9
                     A                      A                      A
 Frequencies --   755.5476               929.2229               939.9163
 Red. masses --     1.2365                 3.1466                 1.4430
 Frc consts  --     0.4159                 1.6008                 0.7511
 IR Inten    --     0.0002                11.4625                 3.7211

                    10                     11                     12
                     A                      A                      A
 Frequencies --   974.7422               990.4747               994.8641
 Red. masses --     4.8250                 4.6174                 1.3853
 Frc consts  --     2.7010                 2.6689                 0.8078
 IR Inten    --     2.0857                 0.3925                 0.0000

                    13                     14                     15
                     A                      A                      A
 Frequencies --  1009.7043              1036.7407              1131.4225
 Red. masses --     1.4017                 1.9680                 1.4306
 Frc consts  --     0.8420                 1.2463                 1.0790
 IR Inten    --     0.7533                 7.4744                 0.1530

                    16                     17                     18
                     A                      A                      A
 Frequencies --  1183.9090              1248.4339              1350.7571
 Red. masses --     1.1267                 1.6680                 1.4499
 Frc consts  --     0.9305                 1.5317                 1.5586
 IR Inten    --     2.4757                 0.7994                 0.0905

                    19                     20                     21
                     A                      A                      A
 Frequencies --  1402.3961              1402.5679              1479.6166
 Red. masses --     4.7232                 1.5901                 2.4795
 Frc consts  --     5.4730                 1.8430                 3.1983
 IR Inten    --    42.6123               104.5207                50.9202

                    22                     23                     24
                     A                      A                      A
 Frequencies --  1610.6112              3197.6739              3200.2788
 Red. masses --     5.6705                 1.0897                 1.0877
 Frc consts  --     8.6667                 6.5647                 6.5637
 IR Inten    --     0.9021                 1.2472                 4.0662

                    25                     26                     27
                     A                      A                      A
 Frequencies --  3205.5695              3212.2958              3215.6887
 Red. masses --     1.0924                 1.0978                 1.1007
 Frc consts  --     6.6135                 6.6746                 6.7060
 IR Inten    --    17.4312                33.5510                 0.5346

 - Thermochemistry -
 -------------------
 Temperature   298.150 Kelvin.  Pressure   1.00000 Atm.
 Atom     1 has atomic number  6 and mass  12.00000

 Molecular mass:    77.03913 amu.
 Principal axes and moments of inertia in atomic units:
                           1         2         3
     Eigenvalues --   281.64337 342.59043 624.23380
           X            1.00000  -0.00001   0.00000
           Y            0.00001   1.00000   0.00000
           Z            0.00000   0.00000   1.00000
 This molecule is an asymmetric top.
 Rotational symmetry number  1.
 Rotational temperatures (Kelvin)      0.30753     0.25282     0.13875
 Rotational constants (GHZ):           6.40790     5.26793     2.89113
 Zero-point vibrational energy     224170.8 (Joules/Mol)
                                   53.57811 (Kcal/Mol)
 Warning -- explicit consideration of   5 degrees of freedom as
           vibrations may cause significant error
 Vibrational temperatures:    468.25   475.29   618.27   849.50   852.66
          (Kelvin)           1060.98  1087.06  1336.94  1352.33  1402.43
                             1425.07  1431.39  1452.74  1491.64  1627.86
                             1703.38  1796.22  1943.44  2017.73  2017.98
                             2128.84  2317.31  4600.73  4604.48  4612.09
                             4621.77  4626.65

 Zero-point correction=                           0.085382 (Hartree/Particle)
 Thermal correction to Energy=                    0.090154
 Thermal correction to Enthalpy=                  0.091098
 Thermal correction to Gibbs Free Energy=         0.056657
 Sum of electronic and zero-point Energies=           -231.166473
 Sum of electronic and thermal Energies=              -231.161702
 Sum of electronic and thermal Enthalpies=            -231.160758
 Sum of electronic and thermal Free Energies=         -231.195199

                     E (Thermal)             CV                S
                      KCal/Mol        Cal/Mol-Kelvin    Cal/Mol-Kelvin
 Total                   56.572             18.095             72.487
 Electronic               0.000              0.000              2.183
 Translational            0.889              2.981             38.940
 Rotational               0.889              2.981             25.602
 Vibrational             54.795             12.133              5.762
 Vibration     1          0.710              1.625              1.283
 Vibration     2          0.713              1.615              1.258
 Vibration     3          0.791              1.406              0.860
 Vibration     4          0.948              1.052              0.466
 Vibration     5          0.950              1.047              0.463

 Optimization completed.
    -- Stationary point found.
 Normal termination of Gaussian 09 at Fri Jan 21 05:13:08 2005.
