 Gaussian 09, Revision B.01,
 Gaussian 09:  EM64L-G09RevB.01 12-Aug-2010

 -------------------------------------------------
 #p Temperature=298.15 opt freq UB3LYP/aug-cc-pVDZ
 -------------------------------------------------

 ------------------------------
 Ph+-UB3LYP-aug-cc-pVDZ-Singlet
 ------------------------------
 Symbolic Z-matrix:
 Charge =  1 Multiplicity = 1

 SCF Done:  E(UB3LYP) =  -231.245705224     A.U. after   15 cycles
 SCF Done:  E(UB3LYP) =  -231.272558563     A.U. after   13 cycles
 SCF Done:  E(UB3LYP) =  -231.281946843     A.U. after   13 cycles
 SCF Done:  E(UB3LYP) =  -231.282185445     A.U. after   11 cycles
 SCF Done:  E(UB3LYP) =  -231.282206963     A.U. after   10 cycles
 SCF Done:  E(UB3LYP) =  -231.282210324     A.U. after    9 cycles
 Optimization completed.
    -- Stationary point found.
 Normal termination of Gaussian 09 at Tue Mar  6 07:58:01 2018.

 ----------------------------------------------------------------------
 #P Geom=AllCheck Guess=TCheck SCRF=Check GenChk UB3LYP/Aug-CC-pVDZ Fre
 q
 ----------------------------------------------------------------------

 Ph+-UB3LYP-aug-cc-pVDZ-Singlet
 ------------------------------
 Redundant internal coordinates taken from checkpoint file:
 Ph+-UB3LYP-aug-cc-pVDZ-Singlet.chk
 Charge =  1 Multiplicity = 1

                         Standard orientation:
 ---------------------------------------------------------------------
 Center     Atomic      Atomic             Coordinates (Angstroms)
 Number     Number       Type             X           Y           Z
 ---------------------------------------------------------------------
      1          6           0       -1.216781    0.615119    0.000004
      2          6           0       -1.275307   -0.821569    0.000007
      3          6           0        0.000163   -1.194148   -0.000016
      4          6           0        1.275537   -0.821340    0.000005
      5          6           0        1.216577    0.615383   -0.000004
      6          6           0       -0.000164    1.300020   -0.000001
      7          1           0       -2.182247    1.126531   -0.000008
      8          1           0       -2.195280   -1.402203    0.000005
      9          1           0       -0.000270    2.389542    0.000003
     10          1           0        2.181947    1.126986    0.000004
     11          1           0        2.195699   -1.401641    0.000029
 ---------------------------------------------------------------------

 SCF Done:  E(UB3LYP) =  -231.282210324     A.U. after    1 cycles

 The electronic state is 1-A.
 Alpha  occ. eigenvalues --  -10.52457 -10.45069 -10.45066 -10.43767 -10.43766
 Alpha  occ. eigenvalues --  -10.41040  -1.12473  -1.01003  -0.97797  -0.85079
 Alpha  occ. eigenvalues --   -0.81924  -0.75017  -0.71530  -0.67647  -0.66127
 Alpha  occ. eigenvalues --   -0.62272  -0.60380  -0.59179  -0.49272  -0.48984
 Alpha virt. eigenvalues --   -0.35345  -0.25130  -0.22706  -0.15013  -0.12463
 Alpha virt. eigenvalues --   -0.11666  -0.10310  -0.10109  -0.09628  -0.09426
 Alpha virt. eigenvalues --   -0.08180  -0.05850  -0.05319  -0.05146  -0.04851

  Beta  occ. eigenvalues --  -10.52457 -10.45069 -10.45066 -10.43767 -10.43766
  Beta  occ. eigenvalues --  -10.41040  -1.12473  -1.01003  -0.97797  -0.85079
  Beta  occ. eigenvalues --   -0.81924  -0.75017  -0.71530  -0.67647  -0.66127
  Beta  occ. eigenvalues --   -0.62272  -0.60380  -0.59179  -0.49272  -0.48984
  Beta virt. eigenvalues --   -0.35345  -0.25130  -0.22706  -0.15013  -0.12463
  Beta virt. eigenvalues --   -0.11666  -0.10310  -0.10109  -0.09628  -0.09426
  Beta virt. eigenvalues --   -0.08180  -0.05850  -0.05319  -0.05146  -0.04851

 Mulliken atomic charges:
              1
     1  C    1.108104
     2  C    0.464003
     3  C    0.280453
     4  C    0.463949
     5  C    1.108099
     6  C    0.578162
     7  H   -0.642124
     8  H   -0.559412
     9  H   -0.599575
    10  H   -0.642176
    11  H   -0.559482
 Sum of Mulliken atomic charges =   1.00000

 Dipole moment (field-independent basis, Debye):
    X=              0.0004    Y=             -1.2375    Z=              0.0000  Tot=              1.2375
 Quadrupole moment (field-independent basis, Debye-Ang):
   XX=            -16.4532   YY=            -20.6710   ZZ=            -35.9112
   XY=              0.0001   XZ=              0.0001   YZ=             -0.0001

  Exact polarizability:  75.469   0.001  66.186   0.000   0.000  35.200
 Approx polarizability: 141.757   0.002 124.461   0.000   0.000  52.644

                     1                      2                      3
                     A                      A                      A
 Frequencies --   381.0784               389.9664               413.8787
 Red. masses --     1.4815                 4.2895                 6.3059
 Frc consts  --     0.1268                 0.3843                 0.6364
 IR Inten    --     0.0000                10.1743                20.8092

                     4                      5                      6
                     A                      A                      A
 Frequencies --   453.5124               534.5697               653.2713
 Red. masses --     2.2889                 2.3937                 5.7687
 Frc consts  --     0.2774                 0.4030                 1.4505
 IR Inten    --     0.0000                 3.1955                 4.2715

                     7                      8                      9
                     A                      A                      A
 Frequencies --   692.4446               837.7187               891.9093
 Red. masses --     1.2329                 1.2886                 4.9582
 Frc consts  --     0.3483                 0.5328                 2.3239
 IR Inten    --   136.6054                 0.5680                 0.0233

                    10                     11                     12
                     A                      A                      A
 Frequencies --   929.8636               974.7056               978.7953
 Red. masses --     1.3005                 2.1086                 1.4372
 Frc consts  --     0.6625                 1.1803                 0.8112
 IR Inten    --     0.0000                 5.8762                 0.7753

                    13                     14                     15
                     A                      A                      A
 Frequencies --   998.1782              1073.5986              1098.7705
 Red. masses --     1.6920                 2.8387                 1.5978
 Frc consts  --     0.9933                 1.9278                 1.1365
 IR Inten    --     0.8428                13.1056                44.7834

                    16                     17                     18
                     A                      A                      A
 Frequencies --  1132.6813              1181.6050              1280.9665
 Red. masses --     1.2751                 1.4515                 1.3551
 Frc consts  --     0.9638                 1.1940                 1.3101
 IR Inten    --     0.1584                 8.0591                12.4871

                    19                     20                     21
                     A                      A                      A
 Frequencies --  1348.8291              1477.8650              1482.9287
 Red. masses --     4.0042                 2.9049                 3.1516
 Frc consts  --     4.2922                 3.7382                 4.0834
 IR Inten    --    37.7871                 0.2038                11.2723

                    22                     23                     24
                     A                      A                      A
 Frequencies --  1794.9222              3181.7030              3183.5888
 Red. masses --     8.5893                 1.0905                 1.0892
 Frc consts  --    16.3043                 6.5044                 6.5040
 IR Inten    --    31.3608                24.3332                21.0880

                    25                     26                     27
                     A                      A                      A
 Frequencies --  3219.0697              3233.9143              3237.8450
 Red. masses --     1.0956                 1.0986                 1.1003
 Frc consts  --     6.6892                 6.7692                 6.7961
 IR Inten    --    25.7512               192.8728                43.3192

 - Thermochemistry -
 -------------------
 Temperature   298.150 Kelvin.  Pressure   1.00000 Atm.
 Atom     1 has atomic number  6 and mass  12.00000

 Molecular mass:    77.03913 amu.
 Principal axes and moments of inertia in atomic units:
                           1         2         3
     Eigenvalues --   267.48750 335.25732 602.74483
           X            1.00000   0.00003   0.00000
           Y           -0.00003   1.00000   0.00000
           Z            0.00000   0.00000   1.00000
 This molecule is an asymmetric top.
 Rotational symmetry number  1.
 Rotational temperatures (Kelvin)      0.32381     0.25835     0.14370
 Rotational constants (GHZ):           6.74701     5.38315     2.99420
 Zero-point vibrational energy     221657.1 (Joules/Mol)
                                   52.97733 (Kcal/Mol)
 Warning -- explicit consideration of   5 degrees of freedom as
           vibrations may cause significant error
 Vibrational temperatures:    548.29   561.07   595.48   652.50   769.13
          (Kelvin)            939.91   996.27  1205.29  1283.26  1337.86
                             1402.38  1408.27  1436.15  1544.67  1580.88
                             1629.67  1700.06  1843.02  1940.66  2126.32
                             2133.60  2582.49  4577.76  4580.47  4631.52
                             4652.88  4658.53

 Zero-point correction=                           0.084425 (Hartree/Particle)
 Thermal correction to Energy=                    0.089326
 Thermal correction to Enthalpy=                  0.090270
 Thermal correction to Gibbs Free Energy=         0.056780
 Sum of electronic and zero-point Energies=           -231.197786
 Sum of electronic and thermal Energies=              -231.192884
 Sum of electronic and thermal Enthalpies=            -231.191940
 Sum of electronic and thermal Free Energies=         -231.225430

                     E (Thermal)             CV                S
                      KCal/Mol        Cal/Mol-Kelvin    Cal/Mol-Kelvin
 Total                   56.053             18.969             70.486
 Electronic               0.000              0.000              0.000
 Translational            0.889              2.981             38.940
 Rotational               0.889              2.981             25.494
 Vibrational             54.275             13.007              6.051
 Vibration     1          0.751              1.511              1.035
 Vibration     2          0.758              1.492              1.000
 Vibration     3          0.777              1.440              0.913
 Vibration     4          0.812              1.353              0.785
 Vibration     5          0.890              1.174              0.577

 Optimization completed.
    -- Stationary point found.
 Normal termination of Gaussian 09 at Tue Mar  6 08:00:57 2018.
