 Gaussian 09, Revision B.01,
 Gaussian 09:  EM64L-G09RevB.01 12-Aug-2010

 -------------------------------------------------
 #p Temperature=298.15 opt freq UB3LYP/aug-cc-pVDZ
 -------------------------------------------------

 ---------------------------------
 Ph-N2+-UB3LYP-aug-cc-pVDZ-Triplet
 ---------------------------------
 Symbolic Z-matrix:
 Charge =  1 Multiplicity = 3

 SCF Done:  E(UB3LYP) =  -340.579679399     A.U. after   25 cycles
 SCF Done:  E(UB3LYP) =  -340.667876345     A.U. after   22 cycles
 SCF Done:  E(UB3LYP) =  -340.765707118     A.U. after   21 cycles
 SCF Done:  E(UB3LYP) =  -340.782470012     A.U. after   22 cycles
 SCF Done:  E(UB3LYP) =  -340.785118107     A.U. after   21 cycles
 SCF Done:  E(UB3LYP) =  -340.786155076     A.U. after   19 cycles
 SCF Done:  E(UB3LYP) =  -340.785441542     A.U. after   23 cycles
 SCF Done:  E(UB3LYP) =  -340.786401279     A.U. after   23 cycles
 SCF Done:  E(UB3LYP) =  -340.786579817     A.U. after   23 cycles
 SCF Done:  E(UB3LYP) =  -340.786621090     A.U. after   17 cycles
 SCF Done:  E(UB3LYP) =  -340.786631430     A.U. after   18 cycles
 SCF Done:  E(UB3LYP) =  -340.786637632     A.U. after   15 cycles
 Optimization completed.
    -- Stationary point found.
 Normal termination of Gaussian 09 at Sat Feb  5 01:07:06 2005.

 ----------------------------------------------------------------------
 #P Geom=AllCheck Guess=TCheck SCRF=Check GenChk UB3LYP/Aug-CC-pVDZ Fre
 q
 ----------------------------------------------------------------------

 Ph-N2+-UB3LYP-aug-cc-pVDZ-Triplet
 ---------------------------------
 Redundant internal coordinates taken from checkpoint file:
 Ph-N2+-UB3LYP-aug-cc-pVDZ-Triplet.chk
 Charge =  1 Multiplicity = 3

                         Standard orientation:
 ---------------------------------------------------------------------
 Center     Atomic      Atomic             Coordinates (Angstroms)
 Number     Number       Type             X           Y           Z
 ---------------------------------------------------------------------
      1          6           0        1.485930   -1.222819    0.050421
      2          6           0        0.118276   -1.274665   -0.050861
      3          6           0       -0.605158   -0.037512   -0.121389
      4          6           0        0.046878    1.240975   -0.071355
      5          6           0        1.415927    1.269307    0.026457
      6          6           0        2.148264    0.044114    0.089494
      7          1           0        2.073895   -2.138700    0.103727
      8          1           0       -0.428368   -2.216053   -0.087878
      9          7           0       -1.989961   -0.083771   -0.378757
     10          7           0       -2.858349    0.054629    0.425142
     11          1           0        3.235067    0.075680    0.176727
     12          1           0        1.950601    2.218074    0.065365
     13          1           0       -0.553734    2.148597   -0.119233
 ---------------------------------------------------------------------

 SCF Done:  E(UB3LYP) =  -340.786637632     A.U. after    1 cycles

 The electronic state is 3-A.
 Alpha  occ. eigenvalues --  -14.62949 -14.61530 -10.50710 -10.45613 -10.43383
 Alpha  occ. eigenvalues --  -10.43298 -10.42755 -10.42731  -1.28600  -1.10588
 Alpha  occ. eigenvalues --   -1.02020  -0.99067  -0.90661  -0.84437  -0.79866
 Alpha  occ. eigenvalues --   -0.72991  -0.70561  -0.69282  -0.66323  -0.65645
 Alpha  occ. eigenvalues --   -0.64142  -0.61275  -0.60111  -0.59375  -0.57142
 Alpha  occ. eigenvalues --   -0.50266  -0.49370  -0.41147
 Alpha virt. eigenvalues --   -0.26968  -0.25248  -0.23428  -0.14768  -0.12153
 Alpha virt. eigenvalues --   -0.12030  -0.11138  -0.10638  -0.09463  -0.09287
 Alpha virt. eigenvalues --   -0.08887  -0.05925  -0.05684  -0.05237  -0.04605

  Beta  occ. eigenvalues --  -14.62524 -14.59738 -10.49836 -10.44962 -10.43277
  Beta  occ. eigenvalues --  -10.43204 -10.42759 -10.42743  -1.26303  -1.09263
  Beta  occ. eigenvalues --   -0.99798  -0.98802  -0.88860  -0.83860  -0.78858
  Beta  occ. eigenvalues --   -0.72300  -0.70046  -0.66324  -0.65576  -0.63697
  Beta  occ. eigenvalues --   -0.61044  -0.60267  -0.59205  -0.56614  -0.55972
  Beta  occ. eigenvalues --   -0.48849
  Beta virt. eigenvalues --   -0.40610  -0.26149  -0.24236  -0.22535  -0.21869
  Beta virt. eigenvalues --   -0.14580  -0.12146  -0.11713  -0.10963  -0.09704
  Beta virt. eigenvalues --   -0.09268  -0.08987  -0.07848  -0.05917  -0.05338

 Mulliken atomic charges:
              1
     1  C    1.063950
     2  C    0.880075
     3  C    0.036562
     4  C    0.906134
     5  C    1.050149
     6  C    0.686048
     7  H   -0.648000
     8  H   -0.649983
     9  N   -0.063145
    10  N   -0.324153
    11  H   -0.639352
    12  H   -0.647070
    13  H   -0.651217
 Sum of Mulliken atomic charges =   1.00000

 Dipole moment (field-independent basis, Debye):
    X=              4.0788    Y=              0.0229    Z=             -0.1056  Tot=              4.0803
 Quadrupole moment (field-independent basis, Debye-Ang):
   XX=            -28.2999   YY=            -30.0371   ZZ=            -45.7238
   XY=              0.0476   XZ=              1.4658   YZ=             -0.2872

  Exact polarizability: 123.150  -0.148  76.340   0.183   0.266  45.265
 Approx polarizability: 214.318  -0.277 120.971   0.953   1.178  74.273

                     1                      2                      3
                     A                      A                      A
 Frequencies --    18.1663               116.8575               302.2773
 Red. masses --     8.7054                 5.3746                 4.2936
 Frc consts  --     0.0017                 0.0432                 0.2311
 IR Inten    --     0.4171                 0.4914                 0.8001

                     4                      5                      6
                     A                      A                      A
 Frequencies --   350.5205               372.4249               431.7480
 Red. masses --     2.9103                 6.1487                 3.7832
 Frc consts  --     0.2107                 0.5025                 0.4155
 IR Inten    --     0.0124                 4.4154                 0.1483

                     7                      8                      9
                     A                      A                      A
 Frequencies --   500.1918               512.5052               624.4191
 Red. masses --     7.4603                 5.3457                 1.6235
 Frc consts  --     1.0997                 0.8273                 0.3730
 IR Inten    --     0.3487                11.0416                37.7363

                    10                     11                     12
                     A                      A                      A
 Frequencies --   747.0317               784.3779               811.2998
 Red. masses --     5.9168                 1.2498                 2.3328
 Frc consts  --     1.9454                 0.4530                 0.9047
 IR Inten    --    15.9645                 0.0825                40.2596

                    13                     14                     15
                     A                      A                      A
 Frequencies --   948.3478               974.0652               985.6275
 Red. masses --     1.4714                 2.8895                 4.3159
 Frc consts  --     0.7797                 1.6153                 2.4703
 IR Inten    --     9.0173                29.9837                 4.4400

                    16                     17                     18
                     A                      A                      A
 Frequencies --  1001.3029              1014.9018              1075.9688
 Red. masses --     1.3729                 1.4321                 1.7108
 Frc consts  --     0.8110                 0.8691                 1.1669
 IR Inten    --     0.0269                 0.5232                 7.4207

                    19                     20                     21
                     A                      A                      A
 Frequencies --  1137.6704              1153.5789              1213.3963
 Red. masses --     1.5477                 3.0243                 1.3966
 Frc consts  --     1.1803                 2.3712                 1.2115
 IR Inten    --     5.4638                83.9786                21.4327

                    22                     23                     24
                     A                      A                      A
 Frequencies --  1265.5873              1371.2926              1399.5080
 Red. masses --     1.8656                 1.4740                 3.2404
 Frc consts  --     1.7606                 1.6331                 3.7393
 IR Inten    --     5.3643                 1.5265                14.9838

                    25                     26                     27
                     A                      A                      A
 Frequencies --  1434.7646              1519.9543              1654.4662
 Red. masses --     1.6519                 3.0029                 5.7483
 Frc consts  --     2.0035                 4.0874                 9.2705
 IR Inten    --   168.4563                41.1109                 0.4881

                    28                     29                     30
                     A                      A                      A
 Frequencies --  1790.7241              3205.5374              3210.4918
 Red. masses --    13.8432                 1.0900                 1.0901
 Frc consts  --    26.1543                 6.5993                 6.6199
 IR Inten    --    98.8794                 0.0048                 0.3375

                    31                     32                     33
                     A                      A                      A
 Frequencies --  3214.8001              3221.5481              3224.4742
 Red. masses --     1.0928                 1.0985                 1.1009
 Frc consts  --     6.6539                 6.7173                 6.7443
 IR Inten    --    11.1296                27.3425                 2.5705

 - Thermochemistry -
 -------------------
 Temperature   298.150 Kelvin.  Pressure   1.00000 Atm.
 Atom     1 has atomic number  6 and mass  12.00000

 Molecular mass:   105.04527 amu.
 Principal axes and moments of inertia in atomic units:
                           1         2         3
     Eigenvalues --   355.747541086.439591406.41457
           X            0.99999  -0.00047   0.00347
           Y            0.00048   1.00000  -0.00139
           Z           -0.00347   0.00139   0.99999
 This molecule is an asymmetric top.
 Rotational symmetry number  1.
 Rotational temperatures (Kelvin)      0.24347     0.07972     0.06158
 Rotational constants (GHZ):           5.07310     1.66115     1.28322
 Zero-point vibrational energy     248762.4 (Joules/Mol)
                                   59.45564 (Kcal/Mol)
 Warning -- explicit consideration of   8 degrees of freedom as
           vibrations may cause significant error
 Vibrational temperatures:     26.14   168.13   434.91   504.32   535.84
          (Kelvin)            621.19   719.66   737.38   898.40  1074.81
                             1128.54  1167.28  1364.46  1401.46  1418.10
                             1440.65  1460.22  1548.08  1636.85  1659.74
                             1745.80  1820.90  1972.98  2013.58  2064.30
                             2186.87  2380.40  2576.45  4612.05  4619.18
                             4625.37  4635.08  4639.29

 Zero-point correction=                           0.094749 (Hartree/Particle)
 Thermal correction to Energy=                    0.101746
 Thermal correction to Enthalpy=                  0.102691
 Thermal correction to Gibbs Free Energy=         0.061122
 Sum of electronic and zero-point Energies=           -340.691889
 Sum of electronic and thermal Energies=              -340.684891
 Sum of electronic and thermal Enthalpies=            -340.683947
 Sum of electronic and thermal Free Energies=         -340.725516

                     E (Thermal)             CV                S
                      KCal/Mol        Cal/Mol-Kelvin    Cal/Mol-Kelvin
 Total                   63.847             25.140             87.488
 Electronic               0.000              0.000              2.183
 Translational            0.889              2.981             39.865
 Rotational               0.889              2.981             27.788
 Vibrational             62.069             19.178             17.652
 Vibration     1          0.593              1.986              6.825
 Vibration     2          0.608              1.935              3.152
 Vibration     3          0.694              1.669              1.404
 Vibration     4          0.727              1.574              1.164
 Vibration     5          0.744              1.529              1.070
 Vibration     6          0.793              1.401              0.853
 Vibration     7          0.856              1.250              0.658
 Vibration     8          0.868              1.222              0.628

 Normal termination of Gaussian 09 at Sat Feb  5 01:16:22 2005.
