 Gaussian 09, Revision B.01,
 Gaussian 09:  EM64L-G09RevB.01 12-Aug-2010

 -------------------------------------------------
 #p Temperature=298.15 opt freq UB3LYP/aug-cc-pVDZ
 -------------------------------------------------

 -------------------------------
 Ph-N2-UB3LYP-aug-cc-pVDZ-Duplet
 -------------------------------
 Symbolic Z-matrix:
 Charge =  0 Multiplicity = 2

 SCF Done:  E(UB3LYP) =  -340.822709335     A.U. after   27 cycles
 SCF Done:  E(UB3LYP) =  -340.958265903     A.U. after   21 cycles
 SCF Done:  E(UB3LYP) =  -341.076033403     A.U. after   24 cycles
 SCF Done:  E(UB3LYP) =  -341.113286905     A.U. after   22 cycles
 SCF Done:  E(UB3LYP) =  -341.125515397     A.U. after   21 cycles
 SCF Done:  E(UB3LYP) =  -341.129021607     A.U. after   18 cycles
 SCF Done:  E(UB3LYP) =  -341.128724773     A.U. after   19 cycles
 SCF Done:  E(UB3LYP) =  -341.129460432     A.U. after   18 cycles
 SCF Done:  E(UB3LYP) =  -341.129671453     A.U. after   19 cycles
 SCF Done:  E(UB3LYP) =  -341.130034026     A.U. after   15 cycles
 SCF Done:  E(UB3LYP) =  -341.130016263     A.U. after   23 cycles
 SCF Done:  E(UB3LYP) =  -341.130061066     A.U. after   13 cycles
 SCF Done:  E(UB3LYP) =  -341.130063087     A.U. after   12 cycles
 Optimization completed.
    -- Stationary point found.
 Normal termination of Gaussian 09 at Tue Mar 20 05:14:08 2018.

 ----------------------------------------------------------------------
 #P Geom=AllCheck Guess=TCheck SCRF=Check GenChk UB3LYP/Aug-CC-pVDZ Fre
 q
 ----------------------------------------------------------------------

 Ph-N2-UB3LYP-aug-cc-pVDZ-Duplet
 -------------------------------
 Redundant internal coordinates taken from checkpoint file:
 Ph-N2-UB3LYP-aug-cc-pVDZ-Duplet.chk
 Charge =  0 Multiplicity = 2

                         Standard orientation:
 ---------------------------------------------------------------------
 Center     Atomic      Atomic             Coordinates (Angstroms)
 Number     Number       Type             X           Y           Z
 ---------------------------------------------------------------------
      1          6           0       -1.650509   -1.078573    0.000292
      2          6           0       -0.268969   -1.291907    0.000108
      3          6           0        0.590016   -0.191777   -0.000209
      4          6           0        0.098213    1.119467   -0.000238
      5          6           0       -1.281765    1.320642    0.000009
      6          6           0       -2.155846    0.225221   -0.000054
      7          1           0       -2.331292   -1.929936    0.000039
      8          1           0        0.153287   -2.296498   -0.000222
      9          7           0        2.020778   -0.483652   -0.000251
     10          7           0        2.880750    0.329825    0.000308
     11          1           0       -3.233546    0.390992   -0.000700
     12          1           0       -1.679856    2.335852    0.000924
     13          1           0        0.793871    1.957937    0.000106
 ---------------------------------------------------------------------

 SCF Done:  E(UB3LYP) =  -341.130063087     A.U. after    1 cycles

 The electronic state is 2-A.
 Alpha  occ. eigenvalues --  -14.41872 -14.39698 -10.25304 -10.21781 -10.21764
 Alpha  occ. eigenvalues --  -10.21695 -10.21628 -10.21578  -1.07286  -0.88756
 Alpha  occ. eigenvalues --   -0.79684  -0.77555  -0.68518  -0.63523  -0.58813
 Alpha  occ. eigenvalues --   -0.52730  -0.49473  -0.47049  -0.46025  -0.44807
 Alpha  occ. eigenvalues --   -0.44662  -0.41337  -0.38638  -0.38370  -0.36908
 Alpha  occ. eigenvalues --   -0.28168  -0.27929  -0.20801
 Alpha virt. eigenvalues --   -0.08043  -0.03839  -0.01379   0.00230   0.00260
 Alpha virt. eigenvalues --    0.00988   0.02742   0.03016   0.04613   0.05008
 Alpha virt. eigenvalues --    0.06846   0.07519   0.07669   0.08170   0.08877

  Beta  occ. eigenvalues --  -14.41496 -14.38173 -10.24925 -10.21795 -10.21780
  Beta  occ. eigenvalues --  -10.21711 -10.21617 -10.21568  -1.05506  -0.88491
  Beta  occ. eigenvalues --   -0.78930  -0.77506  -0.67386  -0.63369  -0.58205
  Beta  occ. eigenvalues --   -0.52261  -0.48538  -0.46556  -0.44919  -0.44162
  Beta  occ. eigenvalues --   -0.43157  -0.38573  -0.38345  -0.38145  -0.35784
  Beta  occ. eigenvalues --   -0.28211  -0.27606
  Beta virt. eigenvalues --   -0.07204  -0.06984  -0.03881  -0.01280   0.00233
  Beta virt. eigenvalues --    0.00813   0.01062   0.02785   0.03053   0.04611
  Beta virt. eigenvalues --    0.05097   0.06941   0.07505   0.07726   0.08205

 Mulliken atomic charges:
              1
     1  C    0.767512
     2  C    0.627381
     3  C    0.547515
     4  C    0.936104
     5  C    0.823775
     6  C    0.612664
     7  H   -0.726700
     8  H   -0.759435
     9  N    0.075883
    10  N   -0.604436
    11  H   -0.727521
    12  H   -0.742254
    13  H   -0.830488
 Sum of Mulliken atomic charges =   0.00000

 Dipole moment (field-independent basis, Debye):
    X=             -3.4009    Y=              0.0139    Z=             -0.0002  Tot=              3.4009
 Quadrupole moment (field-independent basis, Debye-Ang):
   XX=            -51.3738   YY=            -41.7650   ZZ=            -48.8958
   XY=             -0.2826   XZ=              0.0000   YZ=              0.0021

  Exact polarizability: 118.739   3.200  90.463   0.000  -0.001  49.636
 Approx polarizability: 190.331  10.901 154.898  -0.001  -0.005  76.346

                     1                      2                      3
                     A                      A                      A
 Frequencies --    85.7030               236.1541               242.4429
 Red. masses --     8.2992                 5.8633                 6.5533
 Frc consts  --     0.0359                 0.1927                 0.2269
 IR Inten    --     0.4597                 0.0034                 2.7605

                     4                      5                      6
                     A                      A                      A
 Frequencies --   419.1628               443.3285               480.1446
 Red. masses --     2.8569                 8.0732                 3.1656
 Frc consts  --     0.2957                 0.9349                 0.4300
 IR Inten    --     0.0028                 1.3041                 4.5859

                     7                      8                      9
                     A                      A                      A
 Frequencies --   586.5603               623.7332               703.2979
 Red. masses --     8.5457                 6.5633                 2.0137
 Frc consts  --     1.7323                 1.5044                 0.5869
 IR Inten    --    21.1315                 1.0447                29.0365

                    10                     11                     12
                     A                      A                      A
 Frequencies --   757.7996               764.7661               849.4607
 Red. masses --     6.8840                 1.5714                 1.2465
 Frc consts  --     2.3291                 0.5415                 0.5299
 IR Inten    --     2.6869                54.4557                 0.0497

                    13                     14                     15
                     A                      A                      A
 Frequencies --   939.3035               987.3235              1010.6938
 Red. masses --     1.3870                 1.3802                 1.3456
 Frc consts  --     0.7210                 0.7927                 0.8098
 IR Inten    --     4.1392                 0.0023                 0.1023

                    16                     17                     18
                     A                      A                      A
 Frequencies --  1011.5100              1038.7937              1091.7348
 Red. masses --     6.3491                 2.2161                 1.4581
 Frc consts  --     3.8274                 1.4090                 1.0239
 IR Inten    --     0.2661                 3.3533                 6.7824

                    19                     20                     21
                     A                      A                      A
 Frequencies --  1099.9024              1173.5090              1184.1585
 Red. masses --     3.3593                 1.0999                 1.1755
 Frc consts  --     2.3944                 0.8924                 0.9711
 IR Inten    --     9.6368                 0.2657                 0.1438

                    22                     23                     24
                     A                      A                      A
 Frequencies --  1322.6086              1357.8933              1470.8539
 Red. masses --     1.3598                 6.6886                 2.3538
 Frc consts  --     1.4015                 7.2664                 3.0003
 IR Inten    --     1.3130                 5.3890                 5.5449

                    25                     26                     27
                     A                      A                      A
 Frequencies --  1492.7505              1621.7684              1634.6256
 Red. masses --     2.1662                 5.7538                 6.4559
 Frc consts  --     2.8439                 8.9163                10.1635
 IR Inten    --     6.4068                 2.8002                 2.3074

                    28                     29                     30
                     A                      A                      A
 Frequencies --  1850.8579              3178.3935              3187.2819
 Red. masses --    13.7547                 1.0856                 1.0890
 Frc consts  --    27.7618                 6.4616                 6.5178
 IR Inten    --    25.5541                 0.2657                 6.1568

                    31                     32                     33
                     A                      A                      A
 Frequencies --  3196.3784              3203.9577              3206.6675
 Red. masses --     1.0925                 1.0949                 1.0987
 Frc consts  --     6.5763                 6.6222                 6.6563
 IR Inten    --     6.2290                 5.2726                 8.2952

 - Thermochemistry -
 -------------------
 Temperature   298.150 Kelvin.  Pressure   1.00000 Atm.
 Atom     1 has atomic number  6 and mass  12.00000

 Molecular mass:   105.04527 amu.
 Principal axes and moments of inertia in atomic units:
                           1         2         3
     Eigenvalues --   337.062261092.295561429.35778
           X            1.00000   0.00228   0.00000
           Y           -0.00228   1.00000   0.00003
           Z            0.00000  -0.00003   1.00000
 This molecule is an asymmetric top.
 Rotational symmetry number  1.
 Rotational temperatures (Kelvin)      0.25697     0.07930     0.06060
 Rotational constants (GHZ):           5.35433     1.65225     1.26262
 Zero-point vibrational energy     253928.4 (Joules/Mol)
                                   60.69035 (Kcal/Mol)
 Warning -- explicit consideration of   7 degrees of freedom as
           vibrations may cause significant error
 Vibrational temperatures:    123.31   339.77   348.82   603.08   637.85
          (Kelvin)            690.82   843.93   897.41  1011.89  1090.30
                             1100.33  1222.18  1351.45  1420.54  1454.16
                             1455.34  1494.59  1570.76  1582.51  1688.42
                             1703.74  1902.94  1953.70  2116.23  2147.73
                             2333.36  2351.86  2662.97  4572.99  4585.78
                             4598.87  4609.77  4613.67

 Zero-point correction=                           0.096716 (Hartree/Particle)
 Thermal correction to Energy=                    0.103098
 Thermal correction to Enthalpy=                  0.104042
 Thermal correction to Gibbs Free Energy=         0.065361
 Sum of electronic and zero-point Energies=           -341.033347
 Sum of electronic and thermal Energies=              -341.026965
 Sum of electronic and thermal Enthalpies=            -341.026021
 Sum of electronic and thermal Free Energies=         -341.064703

                     E (Thermal)             CV                S
                      KCal/Mol        Cal/Mol-Kelvin    Cal/Mol-Kelvin
 Total                   64.695             23.899             81.412
 Electronic               0.000              0.000              1.377
 Translational            0.889              2.981             39.865
 Rotational               0.889              2.981             27.756
 Vibrational             62.917             17.937             12.414
 Vibration     1          0.601              1.959              3.756
 Vibration     2          0.655              1.785              1.832
 Vibration     3          0.659              1.775              1.785
 Vibration     4          0.782              1.429              0.895
 Vibration     5          0.803              1.376              0.816
 Vibration     6          0.837              1.294              0.710
 Vibration     7          0.944              1.060              0.473

 Optimization completed.
    -- Stationary point found.
 Normal termination of Gaussian 09 at Tue Mar 20 05:23:09 2018.
