 Gaussian 09, Revision B.01,
 Gaussian 09:  EM64L-G09RevB.01 12-Aug-2010

 -------------------------------------------------
 #p Temperature=298.15 opt freq UB3LYP/aug-cc-pVDZ
 -------------------------------------------------

 ---------------------------------
 Ph-N2+-UB3LYP-aug-cc-pVDZ-Singlet
 ---------------------------------
 Symbolic Z-matrix:
 Charge =  1 Multiplicity = 1

 SCF Done:  E(UB3LYP) =  -340.878109662     A.U. after   16 cycles
 SCF Done:  E(UB3LYP) =  -340.880801837     A.U. after   15 cycles
 SCF Done:  E(UB3LYP) =  -340.880836819     A.U. after   10 cycles
 SCF Done:  E(UB3LYP) =  -340.880838829     A.U. after   16 cycles
 Optimization completed.
    -- Stationary point found.
 Normal termination of Gaussian 09 at Tue Mar  6 07:46:30 2018.

 ----------------------------------------------------------------------
 #P Geom=AllCheck Guess=TCheck SCRF=Check GenChk UB3LYP/Aug-CC-pVDZ Fre
 q
 ----------------------------------------------------------------------

 Ph-N2+-UB3LYP-aug-cc-pVDZ-Singlet
 ---------------------------------
 Redundant internal coordinates taken from checkpoint file:
 Ph-N2+-UB3LYP-aug-cc-pVDZ-Singlet.chk
 Charge =  1 Multiplicity = 1

                         Standard orientation:
 ---------------------------------------------------------------------
 Center     Atomic      Atomic             Coordinates (Angstroms)
 Number     Number       Type             X           Y           Z
 ---------------------------------------------------------------------
      1          6           0        1.485026    1.224968   -0.000013
      2          6           0        0.096339    1.247686    0.000041
      3          6           0       -0.562384   -0.000020    0.000036
      4          6           0        0.096354   -1.247690    0.000035
      5          6           0        1.485053   -1.224939   -0.000010
      6          6           0        2.171802    0.000009   -0.000038
      7          1           0        2.036823    2.163905   -0.000028
      8          1           0       -0.467093    2.179358    0.000061
      9          7           0       -1.945566   -0.000033    0.000037
     10          7           0       -3.059385    0.000022   -0.000080
     11          1           0        3.261958    0.000020   -0.000078
     12          1           0        2.036853   -2.163886   -0.000026
     13          1           0       -0.467021   -2.179408    0.000070
 ---------------------------------------------------------------------

 SCF Done:  E(UB3LYP) =  -340.880838829     A.U. after    2 cycles

 The electronic state is 1-A.
 Alpha  occ. eigenvalues --  -14.73030 -14.69437 -10.47927 -10.41660 -10.41659
 Alpha  occ. eigenvalues --  -10.39874 -10.39159 -10.39156  -1.38493  -1.11443
 Alpha  occ. eigenvalues --   -1.02748  -0.96488  -0.90024  -0.82813  -0.77484
 Alpha  occ. eigenvalues --   -0.73501  -0.72638  -0.70999  -0.69143  -0.65379
 Alpha  occ. eigenvalues --   -0.63745  -0.63236  -0.57867  -0.56346  -0.55293
 Alpha  occ. eigenvalues --   -0.47396  -0.46336
 Alpha virt. eigenvalues --   -0.30012  -0.28383  -0.21424  -0.18483  -0.15381
 Alpha virt. eigenvalues --   -0.11761  -0.11743  -0.10656  -0.09358  -0.09088
 Alpha virt. eigenvalues --   -0.08789  -0.06055  -0.05310  -0.05288  -0.05278

  Beta  occ. eigenvalues --  -14.73030 -14.69437 -10.47927 -10.41660 -10.41659
  Beta  occ. eigenvalues --  -10.39874 -10.39159 -10.39156  -1.38493  -1.11443
  Beta  occ. eigenvalues --   -1.02748  -0.96488  -0.90024  -0.82813  -0.77484
  Beta  occ. eigenvalues --   -0.73501  -0.72638  -0.70999  -0.69143  -0.65379
  Beta  occ. eigenvalues --   -0.63745  -0.63236  -0.57867  -0.56346  -0.55293
  Beta  occ. eigenvalues --   -0.47396  -0.46336
  Beta virt. eigenvalues --   -0.30012  -0.28383  -0.21424  -0.18483  -0.15381
  Beta virt. eigenvalues --   -0.11761  -0.11743  -0.10656  -0.09358  -0.09088
  Beta virt. eigenvalues --   -0.08789  -0.06055  -0.05310  -0.05288  -0.05278

 Mulliken atomic charges:
              1
     1  C    0.824058
     2  C    0.556038
     3  C    1.342413
     4  C    0.555940
     5  C    0.824033
     6  C    0.597804
     7  H   -0.675957
     8  H   -0.717053
     9  N    0.411882
    10  N   -0.660834
    11  H   -0.665341
    12  H   -0.675961
    13  H   -0.717022
 Sum of Mulliken atomic charges =   1.00000

 Dipole moment (field-independent basis, Debye):
    X=             -0.5447    Y=             -0.0001    Z=              0.0000  Tot=              0.5447
 Quadrupole moment (field-independent basis, Debye-Ang):
   XX=            -22.7002   YY=            -31.4419   ZZ=            -45.5965
   XY=              0.0001   XZ=             -0.0004   YZ=              0.0000

  Exact polarizability: 124.793  -0.004  79.116  -0.003   0.000  42.400
 Approx polarizability: 241.801  -0.001 135.190   0.001   0.000  65.389

                     1                      2                      3
                     A                      A                      A
 Frequencies --   144.9007               173.4627               389.7100
 Red. masses --     5.6614                 6.9064                 4.1319
 Frc consts  --     0.0700                 0.1224                 0.3697
 IR Inten    --     0.0464                 0.5589                 0.0459

                     4                      5                      6
                     A                      A                      A
 Frequencies --   393.1104               460.0101               541.5479
 Red. masses --     2.8104                 8.5804                 7.8563
 Frc consts  --     0.2559                 1.0698                 1.3575
 IR Inten    --     0.0000                 6.6421                 0.0013

                     7                      8                      9
                     A                      A                      A
 Frequencies --   547.8673               624.3471               669.4157
 Red. masses --     5.8835                 7.0228                 2.1687
 Frc consts  --     1.0405                 1.6129                 0.5726
 IR Inten    --    11.9028                 0.1507                25.0800

                    10                     11                     12
                     A                      A                      A
 Frequencies --   764.7418               766.4898               827.1143
 Red. masses --     6.2628                 1.4772                 1.2563
 Frc consts  --     2.1580                 0.5113                 0.5064
 IR Inten    --     0.2561                56.8130                 0.0000

                    13                     14                     15
                     A                      A                      A
 Frequencies --   954.4071               998.4863              1005.4709
 Red. masses --     1.3185                 1.3718                 6.1872
 Frc consts  --     0.7076                 0.8058                 3.6854
 IR Inten    --     1.7296                 0.0001                 3.5778

                    16                     17                     18
                     A                      A                      A
 Frequencies --  1032.2650              1040.0144              1111.4856
 Red. masses --     2.2353                 1.4105                 1.4847
 Frc consts  --     1.4034                 0.8989                 1.0807
 IR Inten    --     0.0070                 0.1473                 4.5383

                    19                     20                     21
                     A                      A                      A
 Frequencies --  1123.8000              1193.2864              1202.7851
 Red. masses --     3.6427                 1.0894                 1.2408
 Frc consts  --     2.7105                 0.9140                 1.0576
 IR Inten    --   129.2044                 1.2239                 1.2351

                    22                     23                     24
                     A                      A                      A
 Frequencies --  1336.3947              1377.3451              1475.5152
 Red. masses --     1.3495                 7.2105                 1.9503
 Frc consts  --     1.4200                 8.0594                 2.5018
 IR Inten    --     0.0262                21.3690                 0.6081

                    25                     26                     27
                     A                      A                      A
 Frequencies --  1477.8342              1602.3514              1605.2534
 Red. masses --     2.3970                 5.4407                 5.2775
 Frc consts  --     3.0844                 8.2304                 8.0124
 IR Inten    --    23.1304                 0.3388               105.8922

                    28                     29                     30
                     A                      A                      A
 Frequencies --  2338.1935              3204.1486              3212.0598
 Red. masses --    13.9417                 1.0895                 1.0904
 Frc consts  --    44.9084                 6.5903                 6.6281
 IR Inten    --   252.5086                 0.1005                 0.4773

                    31                     32                     33
                     A                      A                      A
 Frequencies --  3215.4296              3222.9821              3225.6335
 Red. masses --     1.0939                 1.0978                 1.1005
 Frc consts  --     6.6637                 6.7189                 6.7466
 IR Inten    --     6.6981                15.8817                 0.3493

 - Thermochemistry -
 -------------------
 Temperature   298.150 Kelvin.  Pressure   1.00000 Atm.
 Atom     1 has atomic number  6 and mass  12.00000

 Molecular mass:   105.04527 amu.
 Principal axes and moments of inertia in atomic units:
                           1         2         3
     Eigenvalues --   329.914921131.163831461.07874
           X            1.00000   0.00000   0.00000
           Y            0.00000   1.00000   0.00000
           Z            0.00000   0.00000   1.00000
 This molecule is an asymmetric top.
 Rotational symmetry number  1.
 Rotational temperatures (Kelvin)      0.26253     0.07657     0.05928
 Rotational constants (GHZ):           5.47032     1.59547     1.23521
 Zero-point vibrational energy     258739.5 (Joules/Mol)
                                   61.84021 (Kcal/Mol)
 Warning -- explicit consideration of   7 degrees of freedom as
           vibrations may cause significant error
 Vibrational temperatures:    208.48   249.57   560.71   565.60   661.85
          (Kelvin)            779.17   788.26   898.30   963.14  1100.29
                             1102.81  1190.03  1373.18  1436.60  1446.65
                             1485.20  1496.35  1599.18  1616.90  1716.87
                             1730.54  1922.77  1981.69  2122.93  2126.27
                             2305.42  2309.60  3364.13  4610.05  4621.43
                             4626.28  4637.15  4640.96

 Zero-point correction=                           0.098549 (Hartree/Particle)
 Thermal correction to Energy=                    0.104732
 Thermal correction to Enthalpy=                  0.105676
 Thermal correction to Gibbs Free Energy=         0.068228
 Sum of electronic and zero-point Energies=           -340.782290
 Sum of electronic and thermal Energies=              -340.776107
 Sum of electronic and thermal Enthalpies=            -340.775163
 Sum of electronic and thermal Free Energies=         -340.812611

                     E (Thermal)             CV                S
                      KCal/Mol        Cal/Mol-Kelvin    Cal/Mol-Kelvin
 Total                   65.720             23.575             78.816
 Electronic               0.000              0.000              0.000
 Translational            0.889              2.981             39.865
 Rotational               0.889              2.981             27.791
 Vibrational             63.943             17.613             11.161
 Vibration     1          0.616              1.908              2.738
 Vibration     2          0.627              1.875              2.398
 Vibration     3          0.758              1.492              1.001
 Vibration     4          0.760              1.485              0.988
 Vibration     5          0.818              1.339              0.766
 Vibration     6          0.897              1.158              0.562
 Vibration     7          0.903              1.144              0.549

 Optimization completed.
    -- Stationary point found.
 Normal termination of Gaussian 09 at Tue Mar  6 07:55:04 2018.
