 Gaussian 09, Revision B.01,
 Gaussian 09:  EM64L-G09RevB.01 12-Aug-2010

 -------------------------------------------------
 #p Temperature=298.15 opt freq UB3LYP/aug-cc-pVDZ
 -------------------------------------------------

 ----------------------------
 Ph-UB3LYP-aug-cc-pVDZ-Duplet
 ----------------------------
 Symbolic Z-matrix:
 Charge =  0 Multiplicity = 2

 SCF Done:  E(UB3LYP) =  -231.584429641     A.U. after   16 cycles
 SCF Done:  E(UB3LYP) =  -231.587387451     A.U. after   14 cycles
 SCF Done:  E(UB3LYP) =  -231.587472706     A.U. after   13 cycles
 SCF Done:  E(UB3LYP) =  -231.587479104     A.U. after   16 cycles
 Optimization completed.
    -- Stationary point found.
 Normal termination of Gaussian 09 at Tue Mar  6 12:13:14 2018.

 ----------------------------------------------------------------------
 #P Geom=AllCheck Guess=TCheck SCRF=Check GenChk UB3LYP/Aug-CC-pVDZ Fre
 q
 ----------------------------------------------------------------------

 Ph-UB3LYP-aug-cc-pVDZ-Duplet
 ----------------------------
 Redundant internal coordinates taken from checkpoint file:
 Ph-UB3LYP-aug-cc-pVDZ-Duplet.chk
 Charge =  0 Multiplicity = 2

                         Standard orientation:
 ---------------------------------------------------------------------
 Center     Atomic      Atomic             Coordinates (Angstroms)
 Number     Number       Type             X           Y           Z
 ---------------------------------------------------------------------
      1          6           0        1.216146    0.633547    0.000009
      2          6           0        1.229108   -0.773528   -0.000012
      3          6           0       -0.000021   -1.400895   -0.000002
      4          6           0       -1.229098   -0.773525    0.000012
      5          6           0       -1.216113    0.633563   -0.000009
      6          6           0       -0.000002    1.326659    0.000000
      7          1           0        2.160234    1.181546    0.000024
      8          1           0        2.168506   -1.327571   -0.000007
      9          1           0       -0.000010    2.417057   -0.000001
     10          1           0       -2.160261    1.181580   -0.000021
     11          1           0       -2.168585   -1.327538    0.000019
 ---------------------------------------------------------------------

 SCF Done:  E(UB3LYP) =  -231.587479104     A.U. after    1 cycles

 The electronic state is 2-A.
 Alpha  occ. eigenvalues --  -10.21885 -10.20619 -10.20617 -10.20511 -10.20510
 Alpha  occ. eigenvalues --  -10.19882  -0.87052  -0.76222  -0.75355  -0.61784
 Alpha  occ. eigenvalues --   -0.60283  -0.52445  -0.46238  -0.46227  -0.43804
 Alpha  occ. eigenvalues --   -0.39797  -0.38075  -0.36465  -0.26735  -0.26668
 Alpha  occ. eigenvalues --   -0.24934
 Alpha virt. eigenvalues --   -0.02707  -0.02017  -0.00909   0.00615   0.01085
 Alpha virt. eigenvalues --    0.02901   0.03388   0.05464   0.06533   0.07300
 Alpha virt. eigenvalues --    0.08138   0.08413   0.09150   0.09669   0.09761

  Beta  occ. eigenvalues --  -10.20542 -10.20537 -10.20477 -10.20473 -10.20352
  Beta  occ. eigenvalues --  -10.19937  -0.86251  -0.75868  -0.74247  -0.61421
  Beta  occ. eigenvalues --   -0.59102  -0.51765  -0.45560  -0.45550  -0.43384
  Beta  occ. eigenvalues --   -0.38630  -0.37741  -0.36039  -0.26701  -0.26023
  Beta virt. eigenvalues --   -0.09348  -0.02766  -0.01087  -0.00876   0.00625
  Beta virt. eigenvalues --    0.01214   0.02895   0.03659   0.05473   0.06794
  Beta virt. eigenvalues --    0.07605   0.08123   0.08434   0.09135   0.09706

 Mulliken atomic charges:
              1
     1  C    1.088117
     2  C    0.808746
     3  C   -1.011233
     4  C    0.808654
     5  C    1.087827
     6  C    0.564726
     7  H   -0.734913
     8  H   -0.584891
     9  H   -0.707423
    10  H   -0.734833
    11  H   -0.584777
 Sum of Mulliken atomic charges =   0.00000

 Dipole moment (field-independent basis, Debye):
    X=              0.0000    Y=              0.8746    Z=              0.0000  Tot=              0.8746
 Quadrupole moment (field-independent basis, Debye-Ang):
   XX=            -30.5031   YY=            -34.6462   ZZ=            -39.2315
   XY=              0.0000   XZ=              0.0000   YZ=              0.0000

  Exact polarizability:  83.184   0.000  78.620   0.000   0.000  44.264
 Approx polarizability: 138.166   0.000 131.004   0.000   0.000  65.646

                     1                      2                      3
                     A                      A                      A
 Frequencies --   400.6361               422.8377               595.3160
 Red. masses --     2.7764                 3.5807                 6.4265
 Frc consts  --     0.2626                 0.3772                 1.3419
 IR Inten    --     0.0000                 6.3607                 0.5590

                     4                      5                      6
                     A                      A                      A
 Frequencies --   614.3238               671.0609               714.7249
 Red. masses --     6.8966                 2.3945                 1.3506
 Frc consts  --     1.5335                 0.6353                 0.4065
 IR Inten    --     1.6131                23.9655                72.9268

                     7                      8                      9
                     A                      A                      A
 Frequencies --   807.4353               885.6805               958.9029
 Red. masses --     1.2492                 1.3192                 1.3933
 Frc consts  --     0.4798                 0.6097                 0.7548
 IR Inten    --     0.0002                 0.4556                 0.0000

                    10                     11                     12
                     A                      A                      A
 Frequencies --   978.6958               987.7475              1016.6487
 Red. masses --     6.8144                 1.3343                 4.8242
 Frc consts  --     3.8457                 0.7670                 2.9377
 IR Inten    --     1.0043                 0.1589                 0.3957

                    13                     14                     15
                     A                      A                      A
 Frequencies --  1046.0700              1068.9775              1166.1091
 Red. masses --     1.8731                 1.5744                 1.0995
 Frc consts  --     1.2076                 1.0600                 0.8809
 IR Inten    --     9.0748                 4.1227                 0.1213

                    16                     17                     18
                     A                      A                      A
 Frequencies --  1166.5139              1292.6211              1333.1451
 Red. masses --     1.1350                 1.3783                 4.7024
 Frc consts  --     0.9099                 1.3569                 4.9241
 IR Inten    --     0.0980                 0.0368                 0.5036

                    19                     20                     21
                     A                      A                      A
 Frequencies --  1448.7299              1456.6484              1571.7360
 Red. masses --     2.2174                 2.1810                 5.0604
 Frc consts  --     2.7420                 2.7266                 7.3654
 IR Inten    --     4.8962                 7.1058                 1.3913

                    22                     23                     24
                     A                      A                      A
 Frequencies --  1629.1109              3166.3743              3171.9343
 Red. masses --     6.9070                 1.0846                 1.0861
 Frc consts  --    10.8005                 6.4066                 6.4385
 IR Inten    --     1.6770                 1.0589                 3.7879

                    25                     26                     27
                     A                      A                      A
 Frequencies --  3184.1771              3186.3270              3197.3074
 Red. masses --     1.0918                 1.0939                 1.0981
 Frc consts  --     6.5219                 6.5438                 6.6139
 IR Inten    --     3.3995                18.3080                 9.4568

 - Thermochemistry -
 -------------------
 Temperature   298.150 Kelvin.  Pressure   1.00000 Atm.
 Atom     1 has atomic number  6 and mass  12.00000

 Molecular mass:    77.03913 amu.
 Principal axes and moments of inertia in atomic units:
                           1         2         3
     Eigenvalues --   288.75852 323.67106 612.42959
           X            1.00000  -0.00001   0.00000
           Y            0.00001   1.00000   0.00000
           Z            0.00000   0.00000   1.00000
 This molecule is an asymmetric top.
 Rotational symmetry number  1.
 Rotational temperatures (Kelvin)      0.29995     0.26760     0.14143
 Rotational constants (GHZ):           6.25000     5.57585     2.94686
 Zero-point vibrational energy     228126.6 (Joules/Mol)
                                   54.52357 (Kcal/Mol)
 Warning -- explicit consideration of   4 degrees of freedom as
           vibrations may cause significant error
 Vibrational temperatures:    576.43   608.37   856.53   883.87   965.51
          (Kelvin)           1028.33  1161.72  1274.30  1379.65  1408.12
                             1421.15  1462.73  1505.06  1538.02  1677.77
                             1678.35  1859.79  1918.10  2084.40  2095.79
                             2261.37  2343.92  4555.70  4563.70  4581.31
                             4584.41  4600.21

 Zero-point correction=                           0.086889 (Hartree/Particle)
 Thermal correction to Energy=                    0.091291
 Thermal correction to Enthalpy=                  0.092235
 Thermal correction to Gibbs Free Energy=         0.058827
 Sum of electronic and zero-point Energies=           -231.500590
 Sum of electronic and thermal Energies=              -231.496188
 Sum of electronic and thermal Enthalpies=            -231.495244
 Sum of electronic and thermal Free Energies=         -231.528652

                     E (Thermal)             CV                S
                      KCal/Mol        Cal/Mol-Kelvin    Cal/Mol-Kelvin
 Total                   57.286             16.975             70.314
 Electronic               0.000              0.000              1.377
 Translational            0.889              2.981             38.940
 Rotational               0.889              2.981             25.551
 Vibrational             55.509             11.014              4.444
 Vibration     1          0.766              1.469              0.960
 Vibration     2          0.785              1.421              0.882
 Vibration     3          0.953              1.042              0.458
 Vibration     4          0.974              1.002              0.426

 Optimization completed.
    -- Stationary point found.
 Normal termination of Gaussian 09 at Tue Mar  6 12:16:19 2018.
