 Gaussian 09, Revision B.01,
 Gaussian 09:  EM64L-G09RevB.01 12-Aug-2010

 -------------------------------------------------
 #p Temperature=298.15 opt freq UB3LYP/aug-cc-pVDZ
 -------------------------------------------------

 ------------------------------------
 Pyrazine-2-UB3LYP-aug-cc-pVDZ-Duplet
 ------------------------------------
 Symbolic Z-matrix:
 Charge =  0 Multiplicity = 2

 SCF Done:  E(UB3LYP) =  -263.650103083     A.U. after   17 cycles
 SCF Done:  E(UB3LYP) =  -263.670878138     A.U. after   17 cycles
 SCF Done:  E(UB3LYP) =  -263.671872782     A.U. after   17 cycles
 SCF Done:  E(UB3LYP) =  -263.671990622     A.U. after   17 cycles
 SCF Done:  E(UB3LYP) =  -263.672006759     A.U. after   18 cycles
 SCF Done:  E(UB3LYP) =  -263.672014972     A.U. after   11 cycles
 SCF Done:  E(UB3LYP) =  -263.672016737     A.U. after   18 cycles
 Optimization completed.
    -- Stationary point found.
 Normal termination of Gaussian 09 at Tue Mar  6 12:37:38 2018.

 ----------------------------------------------------------------------
 #P Geom=AllCheck Guess=TCheck SCRF=Check GenChk UB3LYP/Aug-CC-pVDZ Fre
 q
 ----------------------------------------------------------------------

 Pyrazine-2-UB3LYP-aug-cc-pVDZ-Duplet
 ------------------------------------
 Redundant internal coordinates taken from checkpoint file:
 Pyrazine-2-UB3LYP-aug-cc-pVDZ-Duplet.chk
 Charge =  0 Multiplicity = 2

                         Standard orientation:
 ---------------------------------------------------------------------
 Center     Atomic      Atomic             Coordinates (Angstroms)
 Number     Number       Type             X           Y           Z
 ---------------------------------------------------------------------
      1          6           0        0.380897   -1.314259    0.000264
      2          6           0        1.350956   -0.298316   -0.000299
      3          1           0        2.421377   -0.499534    0.000323
      4          6           0       -0.374414    1.214066   -0.000051
      5          1           0       -0.691823    2.258469    0.000882
      6          6           0       -1.315363    0.183120   -0.000337
      7          1           0       -2.389331    0.373141    0.000585
      8          7           0       -0.887210   -1.095372    0.000034
      9          7           0        0.945398    0.975409    0.000073
 ---------------------------------------------------------------------

 SCF Done:  E(UB3LYP) =  -263.672016737     A.U. after    1 cycles

 The electronic state is 2-A.
 Alpha  occ. eigenvalues --  -14.37963 -14.37415 -10.26088 -10.25866 -10.25396
 Alpha  occ. eigenvalues --  -10.25055  -1.01284  -0.93731  -0.79883  -0.68613
 Alpha  occ. eigenvalues --   -0.66640  -0.54689  -0.53753  -0.49281  -0.44997
 Alpha  occ. eigenvalues --   -0.43905  -0.35637  -0.35251  -0.32099  -0.29563
 Alpha  occ. eigenvalues --   -0.23281
 Alpha virt. eigenvalues --   -0.07610  -0.04671  -0.00997   0.00715   0.01753
 Alpha virt. eigenvalues --    0.04095   0.04476   0.04701   0.06630   0.06663
 Alpha virt. eigenvalues --    0.07723   0.08838   0.09145   0.09503   0.10084

  Beta  occ. eigenvalues --  -14.37614 -14.37240 -10.25908 -10.25726 -10.25096
  Beta  occ. eigenvalues --  -10.24060  -1.00672  -0.93181  -0.79104  -0.68040
  Beta  occ. eigenvalues --   -0.65359  -0.53756  -0.53238  -0.48776  -0.44647
  Beta  occ. eigenvalues --   -0.43243  -0.35352  -0.32851  -0.29421  -0.29071
  Beta virt. eigenvalues --   -0.10231  -0.07339  -0.03847  -0.00971   0.00791
  Beta virt. eigenvalues --    0.01805   0.04183   0.04497   0.05067   0.06662
  Beta virt. eigenvalues --    0.06796   0.07755   0.08911   0.09206   0.09534

 Mulliken atomic charges:
              1
     1  C   -0.212441
     2  C    0.669671
     3  H   -0.362440
     4  C    0.647218
     5  H   -0.516044
     6  C    0.744380
     7  H   -0.495972
     8  N   -0.209993
     9  N   -0.264377
 Sum of Mulliken atomic charges =   0.00000

 Dipole moment (field-independent basis, Debye):
    X=             -0.6423    Y=              1.2221    Z=              0.0006  Tot=              1.3806
 Quadrupole moment (field-independent basis, Debye-Ang):
   XX=            -31.5123   YY=            -37.7460   ZZ=            -35.3933
   XY=             -5.2513   XZ=             -0.0015   YZ=              0.0022

  Exact polarizability:  72.521  -4.955  69.161   0.001  -0.001  36.533
 Approx polarizability: 127.242  -7.359 121.573   0.004  -0.003  54.424

                     1                      2                      3
                     A                      A                      A
 Frequencies --   364.9161               433.5826               572.1507
 Red. masses --     2.7005                 8.7706                10.4197
 Frc consts  --     0.2119                 0.9715                 2.0097
 IR Inten    --     8.4599                10.0374                10.0673

                     4                      5                      6
                     A                      A                      A
 Frequencies --   703.5726               735.6750               836.3511
 Red. masses --     7.9631                 3.9495                 1.2884
 Frc consts  --     2.3225                 1.2594                 0.5310
 IR Inten    --     2.5698                 5.2259                21.7369

                     7                      8                      9
                     A                      A                      A
 Frequencies --   944.2893               955.6119               977.3161
 Red. masses --     1.2825                 7.6874                 1.4726
 Frc consts  --     0.6738                 4.1361                 0.8287
 IR Inten    --     0.0031                48.4435                 0.0074

                    10                     11                     12
                     A                      A                      A
 Frequencies --  1045.6363              1083.0647              1172.6381
 Red. masses --     5.9897                 2.1005                 1.9715
 Frc consts  --     3.8585                 1.4517                 1.5973
 IR Inten    --     4.3049                18.3983                 6.1868

                    13                     14                     15
                     A                      A                      A
 Frequencies --  1247.5542              1289.2951              1385.2648
 Red. masses --     3.5043                 1.7527                 1.5907
 Frc consts  --     3.2134                 1.7165                 1.7984
 IR Inten    --     2.5321                 8.2114                14.9915

                    16                     17                     18
                     A                      A                      A
 Frequencies --  1475.5294              1525.7602              1652.0416
 Red. masses --     2.1915                 4.7275                10.4238
 Frc consts  --     2.8112                 6.4841                16.7616
 IR Inten    --     0.3154                13.4363                 7.5165

                    19                     20                     21
                     A                      A                      A
 Frequencies --  3175.1383              3196.6943              3205.7609
 Red. masses --     1.0884                 1.0963                 1.0933
 Frc consts  --     6.4647                 6.6008                 6.6200
 IR Inten    --     1.8264                23.8817                 2.5936

 - Thermochemistry -
 -------------------
 Temperature   298.150 Kelvin.  Pressure   1.00000 Atm.
 Atom     1 has atomic number  6 and mass  12.00000

 Molecular mass:    79.02962 amu.
 Principal axes and moments of inertia in atomic units:
                           1         2         3
     Eigenvalues --   263.55849 297.98805 561.54651
           X            0.90863  -0.41759  -0.00002
           Y            0.41759   0.90863   0.00003
           Z            0.00000  -0.00003   1.00000
 This molecule is an asymmetric top.
 Rotational symmetry number  1.
 Rotational temperatures (Kelvin)      0.32863     0.29066     0.15424
 Rotational constants (GHZ):           6.84759     6.05642     3.21388
 Zero-point vibrational energy     167344.7 (Joules/Mol)
                                   39.99633 (Kcal/Mol)
 Warning -- explicit consideration of   3 degrees of freedom as
           vibrations may cause significant error
 Vibrational temperatures:    525.03   623.83   823.20  1012.28  1058.47
          (Kelvin)           1203.32  1358.62  1374.91  1406.14  1504.44
                             1558.29  1687.16  1794.95  1855.01  1993.08
                             2122.96  2195.23  2376.92  4568.31  4599.32
                             4612.37

 Zero-point correction=                           0.063738 (Hartree/Particle)
 Thermal correction to Energy=                    0.067900
 Thermal correction to Enthalpy=                  0.068845
 Thermal correction to Gibbs Free Energy=         0.035815
 Sum of electronic and zero-point Energies=           -263.608279
 Sum of electronic and thermal Energies=              -263.604116
 Sum of electronic and thermal Enthalpies=            -263.603172
 Sum of electronic and thermal Free Energies=         -263.636202

                     E (Thermal)             CV                S
                      KCal/Mol        Cal/Mol-Kelvin    Cal/Mol-Kelvin
 Total                   42.608             14.928             69.516
 Electronic               0.000              0.000              1.377
 Translational            0.889              2.981             39.017
 Rotational               0.889              2.981             25.292
 Vibrational             40.831              8.966              3.830
 Vibration     1          0.738              1.544              1.101
 Vibration     2          0.794              1.397              0.847
 Vibration     3          0.928              1.091              0.500

 Optimization completed.
    -- Stationary point found.
 Normal termination of Gaussian 09 at Tue Mar  6 12:39:36 2018.
