 Gaussian 09, Revision B.01,
 Gaussian 09:  EM64L-G09RevB.01 12-Aug-2010

 -------------------------------------------------
 #p Temperature=298.15 opt freq UB3LYP/aug-cc-pVDZ
 -------------------------------------------------

 --------------------------------------
 Pyrazole-5+-UB3LYP-aug-cc-pVDZ-Singlet
 --------------------------------------
 Symbolic Z-matrix:
 Charge =  1 Multiplicity = 1

 SCF Done:  E(UB3LYP) =  -225.158171885     A.U. after   16 cycles
 SCF Done:  E(UB3LYP) =  -225.169684477     A.U. after   14 cycles
 SCF Done:  E(UB3LYP) =  -225.170245084     A.U. after   15 cycles
 SCF Done:  E(UB3LYP) =  -225.170934168     A.U. after   15 cycles
 SCF Done:  E(UB3LYP) =  -225.171202479     A.U. after   13 cycles
 SCF Done:  E(UB3LYP) =  -225.171670653     A.U. after   14 cycles
 SCF Done:  E(UB3LYP) =  -225.171644951     A.U. after   14 cycles
 SCF Done:  E(UB3LYP) =  -225.171971633     A.U. after   14 cycles
 SCF Done:  E(UB3LYP) =  -225.172283797     A.U. after   13 cycles
 SCF Done:  E(UB3LYP) =  -225.172789983     A.U. after   13 cycles
 SCF Done:  E(UB3LYP) =  -225.172880084     A.U. after   13 cycles
 SCF Done:  E(UB3LYP) =  -225.172914214     A.U. after   12 cycles
 SCF Done:  E(UB3LYP) =  -225.172925490     A.U. after   11 cycles
 SCF Done:  E(UB3LYP) =  -225.172930998     A.U. after   11 cycles
 SCF Done:  E(UB3LYP) =  -225.172933998     A.U. after   11 cycles
 SCF Done:  E(UB3LYP) =  -225.172934829     A.U. after   10 cycles
 Optimization completed.
    -- Stationary point found.
 Normal termination of Gaussian 09 at Sat Feb 19 00:20:38 2005.

 ----------------------------------------------------------------------
 #P Geom=AllCheck Guess=TCheck SCRF=Check GenChk UB3LYP/Aug-CC-pVDZ Fre
 q
 ----------------------------------------------------------------------

 Pyrazole-5+-UB3LYP-aug-cc-pVDZ-Singlet
 --------------------------------------
 Redundant internal coordinates taken from checkpoint file:
 Pyrazole-5+-UB3LYP-aug-cc-pVDZ-Singlet.chk
 Charge =  1 Multiplicity = 1

                         Standard orientation:
 ---------------------------------------------------------------------
 Center     Atomic      Atomic             Coordinates (Angstroms)
 Number     Number       Type             X           Y           Z
 ---------------------------------------------------------------------
      1          6           0       -0.087361   -1.018419    0.150506
      2          7           0       -1.170489   -0.306873   -0.127239
      3          1           0       -2.146225   -0.450530    0.137740
      4          6           0        0.758582    0.802352    0.000972
      5          1           0        1.361445    1.703166    0.101838
      6          6           0        1.174458   -0.544636   -0.065053
      7          1           0        2.141253   -1.035140   -0.099195
      8          7           0       -0.605304    0.927833    0.033106
 ---------------------------------------------------------------------

 SCF Done:  E(UB3LYP) =  -225.172934829     A.U. after    1 cycles

 The electronic state is 1-A.
 Alpha  occ. eigenvalues --  -14.69567 -14.65800 -10.57778 -10.49374 -10.47515
 Alpha  occ. eigenvalues --   -1.34864  -1.10324  -1.05732  -0.88721  -0.86473
 Alpha  occ. eigenvalues --   -0.77302  -0.73918  -0.72074  -0.67929  -0.56779
 Alpha  occ. eigenvalues --   -0.54027  -0.52885
 Alpha virt. eigenvalues --   -0.41082  -0.27387  -0.21347  -0.17407  -0.13448
 Alpha virt. eigenvalues --   -0.11765  -0.11272  -0.10784  -0.10630  -0.08690
 Alpha virt. eigenvalues --   -0.06367  -0.06027  -0.05034  -0.04778  -0.04201

  Beta  occ. eigenvalues --  -14.69567 -14.65800 -10.57778 -10.49374 -10.47515
  Beta  occ. eigenvalues --   -1.34864  -1.10324  -1.05732  -0.88721  -0.86473
  Beta  occ. eigenvalues --   -0.77302  -0.73918  -0.72074  -0.67929  -0.56779
  Beta  occ. eigenvalues --   -0.54027  -0.52885
  Beta virt. eigenvalues --   -0.41082  -0.27387  -0.21347  -0.17407  -0.13448
  Beta virt. eigenvalues --   -0.11765  -0.11272  -0.10784  -0.10630  -0.08690
  Beta virt. eigenvalues --   -0.06367  -0.06027  -0.05034  -0.04778  -0.04201

 Mulliken atomic charges:
              1
     1  C    0.128284
     2  N    0.106023
     3  H    0.018438
     4  C    0.584285
     5  H   -0.332019
     6  C    1.093271
     7  H   -0.344584
     8  N   -0.253699
 Sum of Mulliken atomic charges =   1.00000

 Dipole moment (field-independent basis, Debye):
    X=              0.1499    Y=             -1.8407    Z=             -0.0206  Tot=              1.8469
 Quadrupole moment (field-independent basis, Debye-Ang):
   XX=            -12.4464   YY=            -20.4800   ZZ=            -28.0928
   XY=              2.7266   XZ=             -0.6496   YZ=              0.1873

  Exact polarizability:  49.885  -0.543  48.701  -0.791  -1.945  26.331
 Approx polarizability:  92.774  -7.558 122.263  -0.298  -8.092  39.669

                     1                      2                      3
                     A                      A                      A
 Frequencies --   351.8795               466.7870               570.5015
 Red. masses --     5.2674                 2.5673                 2.1971
 Frc consts  --     0.3843                 0.3296                 0.4213
 IR Inten    --    48.3259                47.5460               124.0941

                     4                      5                      6
                     A                      A                      A
 Frequencies --   677.2110               731.3994               769.2976
 Red. masses --     3.4455                 1.7899                 2.4626
 Frc consts  --     0.9310                 0.5642                 0.8587
 IR Inten    --    43.2169                60.9569                69.3565

                     7                      8                      9
                     A                      A                      A
 Frequencies --   872.0732               952.1866              1033.8509
 Red. masses --     1.5285                 2.9261                 1.3244
 Frc consts  --     0.6849                 1.5631                 0.8341
 IR Inten    --    11.4380                19.5225                 8.3207

                    10                     11                     12
                     A                      A                      A
 Frequencies --  1148.5802              1189.8304              1274.7562
 Red. masses --     3.6268                 2.6308                 1.2177
 Frc consts  --     2.8190                 2.1944                 1.1659
 IR Inten    --     4.9846                 6.8890                 5.0021

                    13                     14                     15
                     A                      A                      A
 Frequencies --  1325.2922              1401.0581              1562.9888
 Red. masses --     3.8462                 2.3427                 5.9363
 Frc consts  --     3.9802                 2.7094                 8.5444
 IR Inten    --    33.4419                40.6479                 7.4315

                    16                     17                     18
                     A                      A                      A
 Frequencies --  3236.0742              3285.9736              3529.9724
 Red. masses --     1.0970                 1.1062                 1.0858
 Frc consts  --     6.7684                 7.0374                 7.9716
 IR Inten    --    30.7900                83.2492               321.8094

 - Thermochemistry -
 -------------------
 Temperature   298.150 Kelvin.  Pressure   1.00000 Atm.
 Atom     1 has atomic number  6 and mass  12.00000

 Molecular mass:    67.02962 amu.
 Principal axes and moments of inertia in atomic units:
                           1         2         3
     Eigenvalues --   149.44574 212.96288 358.11935
           X            0.99817   0.06013  -0.00614
           Y           -0.06010   0.99818   0.00506
           Z            0.00644  -0.00468   0.99997
 This molecule is an asymmetric top.
 Rotational symmetry number  1.
 Rotational temperatures (Kelvin)      0.57957     0.40671     0.24186
 Rotational constants (GHZ):          12.07623     8.47444     5.03950
 Zero-point vibrational energy     145823.1 (Joules/Mol)
                                   34.85255 (Kcal/Mol)
 Warning -- explicit consideration of   3 degrees of freedom as
           vibrations may cause significant error
 Vibrational temperatures:    506.28   671.60   820.82   974.35  1052.32
          (Kelvin)           1106.85  1254.72  1369.98  1487.48  1652.55
                             1711.90  1834.09  1906.80  2015.81  2248.79
                             4655.98  4727.78  5078.84

 Zero-point correction=                           0.055541 (Hartree/Particle)
 Thermal correction to Energy=                    0.059678
 Thermal correction to Enthalpy=                  0.060623
 Thermal correction to Gibbs Free Energy=         0.029146
 Sum of electronic and zero-point Energies=           -225.117394
 Sum of electronic and thermal Energies=              -225.113256
 Sum of electronic and thermal Enthalpies=            -225.112312
 Sum of electronic and thermal Free Energies=         -225.143788

                     E (Thermal)             CV                S
                      KCal/Mol        Cal/Mol-Kelvin    Cal/Mol-Kelvin
 Total                   37.449             14.527             66.247
 Electronic               0.000              0.000              0.000
 Translational            0.889              2.981             38.526
 Rotational               0.889              2.981             23.948
 Vibrational             35.671              8.565              3.774
 Vibration     1          0.728              1.571              1.158
 Vibration     2          0.824              1.324              0.747
 Vibration     3          0.927              1.095              0.503

 Optimization completed.
    -- Stationary point found.
 Normal termination of Gaussian 09 at Sat Feb 19 00:21:47 2005.
