 Gaussian 09, Revision B.01,
 Gaussian 09:  EM64L-G09RevB.01 12-Aug-2010

 -------------------------------------------------
 #p Temperature=298.15 opt freq UB3LYP/aug-cc-pVDZ
 -------------------------------------------------

 ---------------------------------------
 Pyrazine-2-N2-UB3LYP-aug-cc-pVDZ-Duplet
 ---------------------------------------
 Symbolic Z-matrix:
 Charge =  0 Multiplicity = 2

 SCF Done:  E(UB3LYP) =  -373.021472142     A.U. after   23 cycles
 SCF Done:  E(UB3LYP) =  -373.105561627     A.U. after   21 cycles
 SCF Done:  E(UB3LYP) =  -373.163285067     A.U. after   23 cycles
 SCF Done:  E(UB3LYP) =  -373.185219288     A.U. after   22 cycles
 SCF Done:  E(UB3LYP) =  -373.189383818     A.U. after   22 cycles
 SCF Done:  E(UB3LYP) =  -373.189774366     A.U. after   23 cycles
 SCF Done:  E(UB3LYP) =  -373.189854087     A.U. after   23 cycles
 SCF Done:  E(UB3LYP) =  -373.189952699     A.U. after   17 cycles
 SCF Done:  E(UB3LYP) =  -373.190100980     A.U. after   17 cycles
 SCF Done:  E(UB3LYP) =  -373.190736407     A.U. after   23 cycles
 SCF Done:  E(UB3LYP) =  -373.201724056     A.U. after   18 cycles
 SCF Done:  E(UB3LYP) =  -373.201970867     A.U. after   17 cycles
 SCF Done:  E(UB3LYP) =  -373.202026113     A.U. after   21 cycles
 SCF Done:  E(UB3LYP) =  -373.202028224     A.U. after   12 cycles
 SCF Done:  E(UB3LYP) =  -373.202028668     A.U. after   12 cycles
 SCF Done:  E(UB3LYP) =  -373.202028969     A.U. after   12 cycles
 SCF Done:  E(UB3LYP) =  -373.202029341     A.U. after   13 cycles
 SCF Done:  E(UB3LYP) =  -373.202029685     A.U. after   12 cycles
 SCF Done:  E(UB3LYP) =  -373.202029754     A.U. after   22 cycles
 Optimization completed.
    -- Stationary point found.
 Normal termination of Gaussian 09 at Tue Mar 20 06:13:00 2018.

 ----------------------------------------------------------------------
 #P Geom=AllCheck Guess=TCheck SCRF=Check GenChk UB3LYP/Aug-CC-pVDZ Fre
 q
 ----------------------------------------------------------------------

 Pyrazine-2-N2-UB3LYP-aug-cc-pVDZ-Duplet
 ---------------------------------------
 Redundant internal coordinates taken from checkpoint file:
 Pyrazine-2-N2-UB3LYP-aug-cc-pVDZ-Duplet.chk
 Charge =  0 Multiplicity = 2

                         Standard orientation:
 ---------------------------------------------------------------------
 Center     Atomic      Atomic             Coordinates (Angstroms)
 Number     Number       Type             X           Y           Z
 ---------------------------------------------------------------------
      1          6           0        0.545173   -0.159812    0.000034
      2          6           0       -0.321745   -1.255956    0.000030
      3          7           0        1.979284   -0.461682    0.000091
      4          7           0        2.827548    0.364421   -0.000126
      5          1           0        0.070565   -2.273843    0.000039
      6          6           0       -2.081284    0.179822   -0.000038
      7          1           0       -3.161517    0.338014   -0.000107
      8          6           0       -1.197864    1.269590    0.000017
      9          1           0       -1.571766    2.295570    0.000080
     10          7           0        0.126353    1.101941    0.000046
     11          7           0       -1.647895   -1.084910   -0.000049
 ---------------------------------------------------------------------

 SCF Done:  E(UB3LYP) =  -373.202029754     A.U. after    1 cycles

 The electronic state is 2-A.
 Alpha  occ. eigenvalues --  -14.42883 -14.41260 -14.38376 -14.38118 -10.29949
 Alpha  occ. eigenvalues --  -10.26639 -10.26616 -10.26457  -1.08886  -1.01912
 Alpha  occ. eigenvalues --   -0.94759  -0.83012  -0.73434  -0.69737  -0.62546
 Alpha  occ. eigenvalues --   -0.56313  -0.54273  -0.50031  -0.48056  -0.47410
 Alpha  occ. eigenvalues --   -0.43408  -0.43052  -0.42656  -0.36242  -0.34519
 Alpha  occ. eigenvalues --   -0.30684  -0.28839  -0.22189
 Alpha virt. eigenvalues --   -0.10785  -0.07490  -0.01869  -0.01417   0.00328
 Alpha virt. eigenvalues --    0.01528   0.03357   0.03697   0.04550   0.05880
 Alpha virt. eigenvalues --    0.06145   0.07174   0.08111   0.08214   0.08795

  Beta  occ. eigenvalues --  -14.42551 -14.39672 -14.38389 -14.38098 -10.29539
  Beta  occ. eigenvalues --  -10.26644 -10.26618 -10.26480  -1.07197  -1.01685
  Beta  occ. eigenvalues --   -0.94655  -0.82361  -0.72517  -0.69569  -0.61523
  Beta  occ. eigenvalues --   -0.55958  -0.54170  -0.49013  -0.47748  -0.45025
  Beta  occ. eigenvalues --   -0.42648  -0.42546  -0.38866  -0.36200  -0.34413
  Beta  occ. eigenvalues --   -0.30414  -0.28710
  Beta virt. eigenvalues --   -0.10189  -0.07875  -0.07322  -0.01365  -0.01201
  Beta virt. eigenvalues --    0.00364   0.01544   0.03379   0.03712   0.04636
  Beta virt. eigenvalues --    0.05928   0.06158   0.07180   0.08224   0.08301

 Mulliken atomic charges:
              1
     1  C    0.479346
     2  C    0.623510
     3  N    0.121435
     4  N   -0.572409
     5  H   -0.521550
     6  C    0.599412
     7  H   -0.523010
     8  C    0.821872
     9  H   -0.529404
    10  N   -0.242764
    11  N   -0.256439
 Sum of Mulliken atomic charges =   0.00000

 Dipole moment (field-independent basis, Debye):
    X=             -2.9936    Y=              0.1647    Z=              0.0001  Tot=              2.9982
 Quadrupole moment (field-independent basis, Debye-Ang):
   XX=            -50.4834   YY=            -45.5445   ZZ=            -45.2046
   XY=             -7.1952   XZ=              0.0002   YZ=              0.0002

  Exact polarizability: 106.013  -0.815  77.580   0.000  -0.004  42.649
 Approx polarizability: 170.371   4.408 135.659  -0.001  -0.002  65.860

                     1                      2                      3
                     A                      A                      A
 Frequencies --    32.9204               208.8680               238.1413
 Red. masses --    11.6274                 5.0779                 8.4048
 Frc consts  --     0.0074                 0.1305                 0.2808
 IR Inten    --     0.1735                 0.0819                 1.5314

                     4                      5                      6
                     A                      A                      A
 Frequencies --   413.7204               439.2461               484.6562
 Red. masses --     3.4032                 9.6597                 6.2755
 Frc consts  --     0.3432                 1.0981                 0.8685
 IR Inten    --    11.5094                 1.0552                10.4498

                     7                      8                      9
                     A                      A                      A
 Frequencies --   616.7267               640.2724               765.3447
 Red. masses --    10.7165                 9.5098                 3.0846
 Frc consts  --     2.4015                 2.2970                 1.0645
 IR Inten    --     6.7882                 7.1061                 2.6839

                    10                     11                     12
                     A                      A                      A
 Frequencies --   795.8323               872.2840               969.3920
 Red. masses --     8.3445                 1.3471                 1.3669
 Frc consts  --     3.1138                 0.6039                 0.7568
 IR Inten    --     0.8892                23.0749                 1.0564

                    13                     14                     15
                     A                      A                      A
 Frequencies --   999.6093              1030.4298              1064.9318
 Red. masses --     1.5312                 5.3383                 2.9833
 Frc consts  --     0.9015                 3.3396                 1.9934
 IR Inten    --     0.2207                29.1461                 8.6498

                    16                     17                     18
                     A                      A                      A
 Frequencies --  1147.1704              1192.7527              1251.0391
 Red. masses --     3.0941                 1.7521                10.6119
 Frc consts  --     2.3990                 1.4686                 9.7856
 IR Inten    --     7.1718                14.9415                14.4365

                    19                     20                     21
                     A                      A                      A
 Frequencies --  1314.3146              1418.8470              1479.6808
 Red. masses --     1.3613                 1.9473                 2.2290
 Frc consts  --     1.3855                 2.3097                 2.8754
 IR Inten    --     3.6215                47.5847                 1.6108

                    22                     23                     24
                     A                      A                      A
 Frequencies --  1574.5103              1613.7919              1845.6591
 Red. masses --     8.5940                 5.8201                13.8558
 Frc consts  --    12.5527                 8.9305                27.8089
 IR Inten    --     0.1247                 1.5146                14.3475

                    25                     26                     27
                     A                      A                      A
 Frequencies --  3169.2512              3185.7338              3191.7833
 Red. masses --     1.0886                 1.0952                 1.0952
 Frc consts  --     6.4419                 6.5487                 6.5736
 IR Inten    --     1.0620                25.3821                 0.0375

 - Thermochemistry -
 -------------------
 Temperature   298.150 Kelvin.  Pressure   1.00000 Atm.
 Atom     1 has atomic number  6 and mass  12.00000

 Molecular mass:   107.03577 amu.
 Principal axes and moments of inertia in atomic units:
                           1         2         3
     Eigenvalues --   313.601651041.152761354.75441
           X            0.99972  -0.02367   0.00000
           Y            0.02367   0.99972   0.00000
           Z            0.00000   0.00000   1.00000
 This molecule is an asymmetric top.
 Rotational symmetry number  1.
 Rotational temperatures (Kelvin)      0.27619     0.08319     0.06393
 Rotational constants (GHZ):           5.75488     1.73341     1.33215
 Zero-point vibrational energy     191144.8 (Joules/Mol)
                                   45.68469 (Kcal/Mol)
 Warning -- explicit consideration of   7 degrees of freedom as
           vibrations may cause significant error
 Vibrational temperatures:     47.36   300.51   342.63   595.25   631.98
          (Kelvin)            697.31   887.33   921.21  1101.16  1145.02
                             1255.02  1394.74  1438.21  1482.56  1532.20
                             1650.52  1716.10  1799.96  1891.00  2041.40
                             2128.93  2265.37  2321.88  2655.49  4559.84
                             4583.55  4592.26

 Zero-point correction=                           0.072803 (Hartree/Particle)
 Thermal correction to Energy=                    0.079103
 Thermal correction to Enthalpy=                  0.080047
 Thermal correction to Gibbs Free Energy=         0.040704
 Sum of electronic and zero-point Energies=           -373.129227
 Sum of electronic and thermal Energies=              -373.122927
 Sum of electronic and thermal Enthalpies=            -373.121983
 Sum of electronic and thermal Free Energies=         -373.161325

                     E (Thermal)             CV                S
                      KCal/Mol        Cal/Mol-Kelvin    Cal/Mol-Kelvin
 Total                   49.638             22.035             82.803
 Electronic               0.000              0.000              1.377
 Translational            0.889              2.981             39.921
 Rotational               0.889              2.981             27.583
 Vibrational             47.860             16.074             13.922
 Vibration     1          0.594              1.983              5.645
 Vibration     2          0.642              1.827              2.054
 Vibration     3          0.656              1.782              1.817
 Vibration     4          0.777              1.440              0.914
 Vibration     5          0.799              1.385              0.829
 Vibration     6          0.841              1.284              0.698
 Vibration     7          0.976              0.997              0.422

 Optimization completed.
    -- Stationary point found.
 Normal termination of Gaussian 09 at Tue Mar 20 06:18:38 2018.
