 Gaussian 09, Revision B.01,
 Gaussian 09:  EM64L-G09RevB.01 12-Aug-2010

 -------------------------------------------------
 #p Temperature=298.15 opt freq UB3LYP/aug-cc-pVDZ
 -------------------------------------------------

 ------------------------------------
 Pyrazole-5-UB3LYP-aug-cc-pVDZ-Duplet
 ------------------------------------
 Symbolic Z-matrix:
 Charge =  0 Multiplicity = 2

 SCF Done:  E(UB3LYP) =  -225.514785385     A.U. after   17 cycles
 SCF Done:  E(UB3LYP) =  -225.532915136     A.U. after   17 cycles
 SCF Done:  E(UB3LYP) =  -225.534671834     A.U. after   17 cycles
 SCF Done:  E(UB3LYP) =  -225.534828545     A.U. after   14 cycles
 SCF Done:  E(UB3LYP) =  -225.534781833     A.U. after   19 cycles
 SCF Done:  E(UB3LYP) =  -225.534841942     A.U. after   14 cycles
 Optimization completed.
    -- Stationary point found.
 Normal termination of Gaussian 09 at Tue Mar  6 14:41:03 2018.

 ----------------------------------------------------------------------
 #P Geom=AllCheck Guess=TCheck SCRF=Check GenChk UB3LYP/Aug-CC-pVDZ Fre
 q
 ----------------------------------------------------------------------

 Pyrazole-5-UB3LYP-aug-cc-pVDZ-Duplet
 ------------------------------------
 Redundant internal coordinates taken from checkpoint file:
 Pyrazole-5-UB3LYP-aug-cc-pVDZ-Duplet.chk
 Charge =  0 Multiplicity = 2

                         Standard orientation:
 ---------------------------------------------------------------------
 Center     Atomic      Atomic             Coordinates (Angstroms)
 Number     Number       Type             X           Y           Z
 ---------------------------------------------------------------------
      1          6           0        0.088963   -1.183523   -0.000066
      2          7           0        1.092257   -0.289635    0.000184
      3          1           0        2.087996   -0.449032    0.000722
      4          6           0       -0.720775    0.839135    0.000047
      5          1           0       -1.349985    1.725035    0.001234
      6          6           0       -1.122651   -0.524008   -0.000185
      7          1           0       -2.119495   -0.946184    0.000373
      8          7           0        0.608924    0.986857   -0.000342
 ---------------------------------------------------------------------

 SCF Done:  E(UB3LYP) =  -225.534841942     A.U. after    1 cycles

 The electronic state is 2-A.
 Alpha  occ. eigenvalues --  -14.42246 -14.36636 -10.26409 -10.22294 -10.20061
 Alpha  occ. eigenvalues --   -1.06362  -0.83595  -0.79636  -0.62835  -0.61020
 Alpha  occ. eigenvalues --   -0.52075  -0.46365  -0.45365  -0.43498  -0.32763
 Alpha  occ. eigenvalues --   -0.29523  -0.27946  -0.26725
 Alpha virt. eigenvalues --   -0.01137  -0.00718   0.00647   0.02023   0.03677
 Alpha virt. eigenvalues --    0.04480   0.05230   0.05238   0.07132   0.08789
 Alpha virt. eigenvalues --    0.08948   0.09728   0.10086   0.10674   0.11628

  Beta  occ. eigenvalues --  -14.42218 -14.36520 -10.24822 -10.22190 -10.20008
  Beta  occ. eigenvalues --   -1.05750  -0.83073  -0.78340  -0.62362  -0.60437
  Beta  occ. eigenvalues --   -0.50128  -0.45895  -0.45102  -0.42815  -0.30879
  Beta  occ. eigenvalues --   -0.27915  -0.25978
  Beta virt. eigenvalues --   -0.14142  -0.01028   0.00176   0.00644   0.02194
  Beta virt. eigenvalues --    0.04254   0.04961   0.05370   0.05387   0.07269
  Beta virt. eigenvalues --    0.08952   0.09017   0.09854   0.10087   0.10795

 Mulliken atomic charges:
              1
     1  C   -0.253353
     2  N    0.087067
     3  H   -0.132119
     4  C    0.448825
     5  H   -0.436859
     6  C    1.092236
     7  H   -0.480698
     8  N   -0.325099
 Sum of Mulliken atomic charges =   0.00000

 Dipole moment (field-independent basis, Debye):
    X=              0.1885    Y=             -1.2324    Z=              0.0029  Tot=              1.2467
 Quadrupole moment (field-independent basis, Debye-Ang):
   XX=            -22.4774   YY=            -30.7475   ZZ=            -31.5095
   XY=             -3.4738   XZ=              0.0001   YZ=              0.0013

  Exact polarizability:  55.676  -0.063  55.451   0.000   0.002  34.664
 Approx polarizability:  91.665   0.475  93.215   0.002  -0.001  48.411

                     1                      2                      3
                     A                      A                      A
 Frequencies --   448.9621               574.2567               670.0499
 Red. masses --     2.5163                 1.8430                 3.5899
 Frc consts  --     0.2988                 0.3581                 0.9496
 IR Inten    --    11.6774                42.4947                15.4817

                     4                      5                      6
                     A                      A                      A
 Frequencies --   754.5980               876.0808               881.1766
 Red. masses --     1.1701                 1.3212                 6.2188
 Frc consts  --     0.3926                 0.5975                 2.8450
 IR Inten    --    86.2675                 9.2246                29.1786

                     7                      8                      9
                     A                      A                      A
 Frequencies --   908.5441              1035.1553              1051.2088
 Red. masses --     5.2137                 1.5012                 3.0538
 Frc consts  --     2.5356                 0.9477                 1.9883
 IR Inten    --     7.6630                 8.8616                15.1294

                    10                     11                     12
                     A                      A                      A
 Frequencies --  1161.5718              1255.2283              1315.6000
 Red. masses --     2.5701                 1.6737                 3.3335
 Frc consts  --     2.0431                 1.5537                 3.3993
 IR Inten    --    18.1404                 7.6109                 2.8585

                    13                     14                     15
                     A                      A                      A
 Frequencies --  1377.4410              1442.4518              1524.3780
 Red. masses --     4.1971                 2.5381                 3.6308
 Frc consts  --     4.6919                 3.1114                 4.9710
 IR Inten    --    16.0765                15.9626                 8.1398

                    16                     17                     18
                     A                      A                      A
 Frequencies --  3239.8316              3288.4945              3672.8591
 Red. masses --     1.0946                 1.0997                 1.0819
 Frc consts  --     6.7692                 7.0071                 8.5988
 IR Inten    --     2.0995                 0.3704               112.3620

 - Thermochemistry -
 -------------------
 Temperature   298.150 Kelvin.  Pressure   1.00000 Atm.
 Atom     1 has atomic number  6 and mass  12.00000

 Molecular mass:    67.02962 amu.
 Principal axes and moments of inertia in atomic units:
                           1         2         3
     Eigenvalues --   168.68680 193.95416 362.64093
           X            0.98351  -0.18086  -0.00002
           Y            0.18086   0.98351   0.00003
           Z            0.00001  -0.00003   1.00000
 This molecule is an asymmetric top.
 Rotational symmetry number  1.
 Rotational temperatures (Kelvin)      0.51346     0.44657     0.23884
 Rotational constants (GHZ):          10.69877     9.30499     4.97666
 Zero-point vibrational energy     152391.6 (Joules/Mol)
                                   36.42247 (Kcal/Mol)
 Warning -- explicit consideration of   2 degrees of freedom as
           vibrations may cause significant error
 Vibrational temperatures:    645.96   826.23   964.05  1085.70  1260.48
          (Kelvin)           1267.82  1307.19  1489.36  1512.45  1671.24
                             1805.99  1892.85  1981.83  2075.36  2193.24
                             4661.39  4731.40  5284.42

 Zero-point correction=                           0.058043 (Hartree/Particle)
 Thermal correction to Energy=                    0.061827
 Thermal correction to Enthalpy=                  0.062771
 Thermal correction to Gibbs Free Energy=         0.031162
 Sum of electronic and zero-point Energies=           -225.476799
 Sum of electronic and thermal Energies=              -225.473015
 Sum of electronic and thermal Enthalpies=            -225.472071
 Sum of electronic and thermal Free Energies=         -225.503680

                     E (Thermal)             CV                S
                      KCal/Mol        Cal/Mol-Kelvin    Cal/Mol-Kelvin
 Total                   38.797             13.059             66.526
 Electronic               0.000              0.000              1.377
 Translational            0.889              2.981             38.526
 Rotational               0.889              2.981             23.988
 Vibrational             37.019              7.097              2.635
 Vibration     1          0.808              1.363              0.799
 Vibration     2          0.931              1.087              0.496

 Normal termination of Gaussian 09 at Tue Mar  6 14:42:16 2018.
