 Gaussian 09, Revision B.01,
 Gaussian 09:  EM64L-G09RevB.01 12-Aug-2010

 -------------------------------------------------
 #p Temperature=298.15 opt freq UB3LYP/aug-cc-pVDZ
 -------------------------------------------------

 -----------------------------------------
 Pyrazine-2-N2+-UB3LYP-aug-cc-pVDZ-Singlet
 -----------------------------------------
 Symbolic Z-matrix:
 Charge =  1 Multiplicity = 1

 SCF Done:  E(UB3LYP) =  -372.910168226     A.U. after   16 cycles
 SCF Done:  E(UB3LYP) =  -372.930656265     A.U. after   13 cycles
 SCF Done:  E(UB3LYP) =  -372.931618493     A.U. after   16 cycles
 SCF Done:  E(UB3LYP) =  -372.931716351     A.U. after   16 cycles
 SCF Done:  E(UB3LYP) =  -372.931761123     A.U. after   16 cycles
 SCF Done:  E(UB3LYP) =  -372.931770374     A.U. after   10 cycles
 SCF Done:  E(UB3LYP) =  -372.931772355     A.U. after   16 cycles
 SCF Done:  E(UB3LYP) =  -372.931772707     A.U. after   16 cycles
 Optimization completed.
    -- Stationary point found.
 Normal termination of Gaussian 09 at Tue Mar  6 08:11:09 2018.

 ----------------------------------------------------------------------
 #P Geom=AllCheck Guess=TCheck SCRF=Check GenChk UB3LYP/Aug-CC-pVDZ Fre
 q
 ----------------------------------------------------------------------

 Pyrazine-2-N2+-UB3LYP-aug-cc-pVDZ-Singlet
 -----------------------------------------
 Redundant internal coordinates taken from checkpoint file:
 Pyrazine-2-N2+-UB3LYP-aug-cc-pVDZ-Singlet.chk
 Charge =  1 Multiplicity = 1

                         Standard orientation:
 ---------------------------------------------------------------------
 Center     Atomic      Atomic             Coordinates (Angstroms)
 Number     Number       Type             X           Y           Z
 ---------------------------------------------------------------------
      1          6           0       -0.499021   -0.015065   -0.000066
      2          6           0        0.152133    1.224622   -0.000147
      3          7           0       -1.916429   -0.041863    0.000045
      4          7           0       -3.026072   -0.023143    0.000089
      5          1           0       -0.375229    2.180697   -0.000022
      6          6           0        2.105772    0.038056    0.000026
      7          1           0        3.197457    0.051069    0.000149
      8          6           0        1.399079   -1.191542    0.000090
      9          1           0        1.918790   -2.150413    0.000077
     10          7           0        0.071997   -1.215317   -0.000154
     11          7           0        1.486391    1.220640    0.000074
 ---------------------------------------------------------------------

 SCF Done:  E(UB3LYP) =  -372.931772707     A.U. after    2 cycles

 The electronic state is 1-A.
 Alpha  occ. eigenvalues --  -14.75179 -14.72583 -14.58290 -14.56406 -10.52937
 Alpha  occ. eigenvalues --  -10.47330 -10.45297 -10.44958  -1.41124  -1.22455
 Alpha  occ. eigenvalues --   -1.14601  -1.07838  -0.95375  -0.89622  -0.83154
 Alpha  occ. eigenvalues --   -0.77042  -0.75908  -0.73207  -0.72025  -0.71674
 Alpha  occ. eigenvalues --   -0.66646  -0.64701  -0.61866  -0.55328  -0.53281
 Alpha  occ. eigenvalues --   -0.50399  -0.47153
 Alpha virt. eigenvalues --   -0.32856  -0.30742  -0.26480  -0.21661  -0.16153
 Alpha virt. eigenvalues --   -0.12485  -0.11304  -0.10993  -0.10364  -0.08936
 Alpha virt. eigenvalues --   -0.08881  -0.08482  -0.06588  -0.06331  -0.05415

  Beta  occ. eigenvalues --  -14.75179 -14.72583 -14.58290 -14.56406 -10.52937
  Beta  occ. eigenvalues --  -10.47330 -10.45297 -10.44958  -1.41124  -1.22455
  Beta  occ. eigenvalues --   -1.14601  -1.07838  -0.95375  -0.89622  -0.83154
  Beta  occ. eigenvalues --   -0.77042  -0.75908  -0.73207  -0.72025  -0.71674
  Beta  occ. eigenvalues --   -0.66646  -0.64701  -0.61866  -0.55328  -0.53281
  Beta  occ. eigenvalues --   -0.50399  -0.47153
  Beta virt. eigenvalues --   -0.32856  -0.30742  -0.26480  -0.21661  -0.16153
  Beta virt. eigenvalues --   -0.12485  -0.11304  -0.10993  -0.10364  -0.08936
  Beta virt. eigenvalues --   -0.08881  -0.08482  -0.06588  -0.06331  -0.05415

 Mulliken atomic charges:
              1
     1  C    0.600912
     2  C    0.648074
     3  N    0.531815
     4  N   -0.473614
     5  H   -0.519282
     6  C    0.662391
     7  H   -0.459348
     8  C    0.927871
     9  H   -0.484172
    10  N   -0.225484
    11  N   -0.209162
 Sum of Mulliken atomic charges =   1.00000

 Dipole moment (field-independent basis, Debye):
    X=             -1.2364    Y=              0.0093    Z=              0.0002  Tot=              1.2365
 Quadrupole moment (field-independent basis, Debye-Ang):
   XX=            -20.0870   YY=            -38.4231   ZZ=            -42.1713
   XY=             -6.7562   XZ=              0.0001   YZ=             -0.0007

  Exact polarizability: 112.288  -1.727  65.665   0.001  -0.001  36.661
 Approx polarizability: 216.692   2.601 115.350   0.002  -0.002  56.775

                     1                      2                      3
                     A                      A                      A
 Frequencies --   137.5389               153.5355               307.2175
 Red. masses --     5.3832                 8.8135                 3.3618
 Frc consts  --     0.0600                 0.1224                 0.1869
 IR Inten    --     0.1337                 0.6451                 0.2239

                     4                      5                      6
                     A                      A                      A
 Frequencies --   426.2148               453.8574               534.2882
 Red. masses --     7.2551                10.5141                 9.5945
 Frc consts  --     0.7765                 1.2760                 1.6137
 IR Inten    --    28.5540                10.4912                 2.0612

                     7                      8                      9
                     A                      A                      A
 Frequencies --   545.8958               627.4836               731.1829
 Red. masses --     6.5948                 9.9367                 3.0780
 Frc consts  --     1.1579                 2.3051                 0.9695
 IR Inten    --     0.1172                 0.0434                 4.0200

                    10                     11                     12
                     A                      A                      A
 Frequencies --   786.0853               890.6045               951.3780
 Red. masses --     8.2945                 1.3741                 1.3626
 Frc consts  --     3.0198                 0.6422                 0.7266
 IR Inten    --     8.9356                17.7296                 0.2229

                    13                     14                     15
                     A                      A                      A
 Frequencies --  1013.1261              1024.6952              1041.9127
 Red. masses --     5.1771                 1.5730                 3.8963
 Frc consts  --     3.1309                 0.9731                 2.4921
 IR Inten    --    67.8223                 0.2327                34.8690

                    16                     17                     18
                     A                      A                      A
 Frequencies --  1087.3594              1196.9679              1292.8608
 Red. masses --     3.2132                 1.7956                12.3199
 Frc consts  --     2.2384                 1.5157                12.1328
 IR Inten    --    16.5122                 6.1193                 6.9428

                    19                     20                     21
                     A                      A                      A
 Frequencies --  1324.3038              1405.9911              1468.2746
 Red. masses --     1.3627                 1.6313                 2.2314
 Frc consts  --     1.4081                 1.9000                 2.8342
 IR Inten    --     0.6093                18.2396                 7.6052

                    22                     23                     24
                     A                      A                      A
 Frequencies --  1557.8531              1590.6464              2364.3458
 Red. masses --     5.6061                 7.2361                13.9861
 Frc consts  --     8.0161                10.7870                46.0647
 IR Inten    --    72.0597                 2.7573               109.9075

                    25                     26                     27
                     A                      A                      A
 Frequencies --  3191.7050              3197.6517              3211.5359
 Red. masses --     1.0953                 1.0939                 1.0979
 Frc consts  --     6.5739                 6.5902                 6.6719
 IR Inten    --     5.3428                 7.1460                 2.2693

 - Thermochemistry -
 -------------------
 Temperature   298.150 Kelvin.  Pressure   1.00000 Atm.
 Atom     1 has atomic number  6 and mass  12.00000

 Molecular mass:   107.03577 amu.
 Principal axes and moments of inertia in atomic units:
                           1         2         3
     Eigenvalues --   307.057871088.050501395.10836
           X            0.99976  -0.02171   0.00000
           Y            0.02171   0.99976   0.00000
           Z            0.00000   0.00000   1.00000
 This molecule is an asymmetric top.
 Rotational symmetry number  1.
 Rotational temperatures (Kelvin)      0.28208     0.07960     0.06208
 Rotational constants (GHZ):           5.87753     1.65869     1.29362
 Zero-point vibrational energy     194480.0 (Joules/Mol)
                                   46.48183 (Kcal/Mol)
 Warning -- explicit consideration of   7 degrees of freedom as
           vibrations may cause significant error
 Vibrational temperatures:    197.89   220.90   442.02   613.23   653.00
          (Kelvin)            768.72   785.42   902.81  1052.01  1131.00
                             1281.38  1368.82  1457.66  1474.31  1499.08
                             1564.47  1722.17  1860.14  1905.38  2022.91
                             2112.52  2241.40  2288.58  3401.76  4592.15
                             4600.70  4620.68

 Zero-point correction=                           0.074074 (Hartree/Particle)
 Thermal correction to Energy=                    0.080171
 Thermal correction to Enthalpy=                  0.081115
 Thermal correction to Gibbs Free Energy=         0.043675
 Sum of electronic and zero-point Energies=           -372.857699
 Sum of electronic and thermal Energies=              -372.851602
 Sum of electronic and thermal Enthalpies=            -372.850657
 Sum of electronic and thermal Free Energies=         -372.888097

                     E (Thermal)             CV                S
                      KCal/Mol        Cal/Mol-Kelvin    Cal/Mol-Kelvin
 Total                   50.308             22.029             78.799
 Electronic               0.000              0.000              0.000
 Translational            0.889              2.981             39.921
 Rotational               0.889              2.981             27.635
 Vibrational             48.531             16.068             11.244
 Vibration     1          0.614              1.916              2.838
 Vibration     2          0.619              1.899              2.628
 Vibration     3          0.697              1.660              1.377
 Vibration     4          0.788              1.413              0.871
 Vibration     5          0.812              1.352              0.784
 Vibration     6          0.889              1.174              0.578
 Vibration     7          0.901              1.149              0.553

 Optimization completed.
    -- Stationary point found.
 Normal termination of Gaussian 09 at Tue Mar  6 08:16:29 2018.
