 Gaussian 09, Revision B.01,
 Gaussian 09:  EM64L-G09RevB.01 12-Aug-2010

 -------------------------------------------------
 #p Temperature=298.15 opt freq UB3LYP/aug-cc-pVDZ
 -------------------------------------------------

 ---------------------------------------
 Pyrazole-5-N2-UB3LYP-aug-cc-pVDZ-Duplet
 ---------------------------------------
 Symbolic Z-matrix:
 Charge =  0 Multiplicity = 2

 SCF Done:  E(UB3LYP) =  -335.033244992     A.U. after   22 cycles
 SCF Done:  E(UB3LYP) =  -335.054493652     A.U. after   21 cycles
 SCF Done:  E(UB3LYP) =  -335.057002219     A.U. after   22 cycles
 SCF Done:  E(UB3LYP) =  -335.057196575     A.U. after   23 cycles
 SCF Done:  E(UB3LYP) =  -335.057217530     A.U. after   19 cycles
 SCF Done:  E(UB3LYP) =  -335.057276057     A.U. after   24 cycles
 SCF Done:  E(UB3LYP) =  -335.057279222     A.U. after   17 cycles
 SCF Done:  E(UB3LYP) =  -335.057359407     A.U. after   18 cycles
 SCF Done:  E(UB3LYP) =  -335.031063173     A.U. after   23 cycles
 SCF Done:  E(UB3LYP) =  -335.057482901     A.U. after   22 cycles
 SCF Done:  E(UB3LYP) =  -335.083923081     A.U. after   15 cycles
 SCF Done:  E(UB3LYP) =  -335.082649613     A.U. after   19 cycles
 SCF Done:  E(UB3LYP) =  -335.084370850     A.U. after   18 cycles
 SCF Done:  E(UB3LYP) =  -335.084778106     A.U. after   15 cycles
 SCF Done:  E(UB3LYP) =  -335.085077704     A.U. after   19 cycles
 SCF Done:  E(UB3LYP) =  -335.085158410     A.U. after   20 cycles
 SCF Done:  E(UB3LYP) =  -335.085183873     A.U. after   14 cycles
 SCF Done:  E(UB3LYP) =  -335.085188419     A.U. after   14 cycles
 SCF Done:  E(UB3LYP) =  -335.085188936     A.U. after   11 cycles
 Optimization completed.
    -- Stationary point found.
 Normal termination of Gaussian 09 at Tue Mar  6 14:35:37 2018.

 ----------------------------------------------------------------------
 #P Geom=AllCheck Guess=TCheck SCRF=Check GenChk UB3LYP/Aug-CC-pVDZ Fre
 q
 ----------------------------------------------------------------------

 Pyrazole-5-N2-UB3LYP-aug-cc-pVDZ-Duplet
 ---------------------------------------
 Redundant internal coordinates taken from checkpoint file:
 Pyrazole-5-N2-UB3LYP-aug-cc-pVDZ-Duplet.chk
 Charge =  0 Multiplicity = 2

                         Standard orientation:
 ---------------------------------------------------------------------
 Center     Atomic      Atomic             Coordinates (Angstroms)
 Number     Number       Type             X           Y           Z
 ---------------------------------------------------------------------
      1          7           0       -1.710052    0.528233   -0.000219
      2          7           0       -2.550486   -0.316039    0.000136
      3          6           0       -0.316909    0.270303   -0.000019
      4          7           0        0.235542   -0.976796   -0.000188
      5          1           0       -0.251607   -1.862697    0.000779
      6          6           0        1.886445    0.363571    0.000045
      7          1           0        2.929235    0.665382   -0.000455
      8          6           0        0.731227    1.177059    0.000215
      9          1           0        0.653531    2.257903    0.000033
     10          7           0        1.577033   -0.939139    0.000013
 ---------------------------------------------------------------------

 SCF Done:  E(UB3LYP) =  -335.085188936     A.U. after    1 cycles

 The electronic state is 2-A.
 Alpha  occ. eigenvalues --  -14.44043 -14.43689 -14.41537 -14.38512 -10.28921
 Alpha  occ. eigenvalues --  -10.23449 -10.21880  -1.10194  -1.07338  -0.85632
 Alpha  occ. eigenvalues --   -0.83109  -0.71781  -0.63669  -0.63229  -0.51383
 Alpha  occ. eigenvalues --   -0.49273  -0.49110  -0.46848  -0.45708  -0.43623
 Alpha  occ. eigenvalues --   -0.41786  -0.32657  -0.29374  -0.28359  -0.22997
 Alpha virt. eigenvalues --   -0.09186  -0.01182   0.00292   0.00445   0.01529
 Alpha virt. eigenvalues --    0.03736   0.03748   0.04501   0.04932   0.05829
 Alpha virt. eigenvalues --    0.07845   0.08111   0.08921   0.09198   0.09592

  Beta  occ. eigenvalues --  -14.43671 -14.43660 -14.39940 -14.38540 -10.28567
  Beta  occ. eigenvalues --  -10.23432 -10.21919  -1.09288  -1.06349  -0.85207
  Beta  occ. eigenvalues --   -0.82727  -0.70201  -0.63531  -0.62995  -0.50436
  Beta  occ. eigenvalues --   -0.48853  -0.47590  -0.44956  -0.44639  -0.43040
  Beta  occ. eigenvalues --   -0.38958  -0.32296  -0.29457  -0.27993
  Beta virt. eigenvalues --   -0.08632  -0.08116  -0.01027   0.00330   0.00528
  Beta virt. eigenvalues --    0.01567   0.03796   0.04067   0.04495   0.05005
  Beta virt. eigenvalues --    0.05874   0.07974   0.08210   0.08991   0.09311

 Mulliken atomic charges:
              1
     1  N    0.138859
     2  N   -0.548372
     3  C   -0.027336
     4  N    0.172268
     5  H   -0.123713
     6  C    0.207849
     7  H   -0.453074
     8  C    1.594314
     9  H   -0.572826
    10  N   -0.387969
 Sum of Mulliken atomic charges =   0.00000

 Dipole moment (field-independent basis, Debye):
    X=              1.1228    Y=              0.6018    Z=              0.0007  Tot=              1.2739
 Quadrupole moment (field-independent basis, Debye-Ang):
   XX=            -46.7363   YY=            -36.6807   ZZ=            -41.1262
   XY=              4.6395   XZ=             -0.0017   YZ=             -0.0029

  Exact polarizability:  93.975   5.299  64.747  -0.001   0.000  39.198
 Approx polarizability: 153.838  13.777 111.653   0.000   0.004  58.776

                     1                      2                      3
                     A                      A                      A
 Frequencies --   141.8860               226.5300               301.7864
 Red. masses --     7.4129                 7.2878                 9.6473
 Frc consts  --     0.0879                 0.2203                 0.5177
 IR Inten    --     1.5652                 5.1527                 0.2283

                     4                      5                      6
                     A                      A                      A
 Frequencies --   498.3120               563.4883               646.7627
 Red. masses --     7.0635                 1.6196                 3.3712
 Frc consts  --     1.0334                 0.3030                 0.8309
 IR Inten    --     6.4881                38.5617                 0.5303

                     7                      8                      9
                     A                      A                      A
 Frequencies --   664.0681               691.7108               805.3294
 Red. masses --    10.3839                 2.7147                 1.2224
 Frc consts  --     2.6980                 0.7653                 0.4671
 IR Inten    --    20.0111                29.3538                71.6438

                    10                     11                     12
                     A                      A                      A
 Frequencies --   890.3890               924.9071              1022.9599
 Red. masses --     1.3581                 5.5096                 4.6715
 Frc consts  --     0.6343                 2.7769                 2.8802
 IR Inten    --     3.0586                26.6214                 3.6217

                    13                     14                     15
                     A                      A                      A
 Frequencies --  1038.7919              1126.7674              1234.0371
 Red. masses --     1.3426                 2.2635                 3.1525
 Frc consts  --     0.8536                 1.6932                 2.8285
 IR Inten    --    19.0684                29.7762                11.0146

                    16                     17                     18
                     A                      A                      A
 Frequencies --  1267.0259              1348.6637              1437.9834
 Red. masses --     1.9853                 4.5006                 3.6867
 Frc consts  --     1.8778                 4.8231                 4.4916
 IR Inten    --    32.1618                 1.2135                 4.0186

                    19                     20                     21
                     A                      A                      A
 Frequencies --  1459.4705              1574.3106              1809.7435
 Red. masses --     2.9333                 3.9780                13.8601
 Frc consts  --     3.6813                 5.8089                26.7456
 IR Inten    --    13.1195                 3.3079                36.9333

                    22                     23                     24
                     A                      A                      A
 Frequencies --  3252.1328              3280.3381              3640.4710
 Red. masses --     1.0950                 1.1023                 1.0823
 Frc consts  --     6.8235                 6.9888                 8.4513
 IR Inten    --     1.8051                 0.5957               112.9635

 - Thermochemistry -
 -------------------
 Temperature   298.150 Kelvin.  Pressure   1.00000 Atm.
 Atom     1 has atomic number  7 and mass  14.00307

 Molecular mass:    95.03577 amu.
 Principal axes and moments of inertia in atomic units:
                           1         2         3
     Eigenvalues --   210.99328 810.933121021.92637
           X            0.99973   0.02325  -0.00001
           Y           -0.02325   0.99973  -0.00003
           Z            0.00001   0.00003   1.00000
 This molecule is an asymmetric top.
 Rotational symmetry number  1.
 Rotational temperatures (Kelvin)      0.41051     0.10681     0.08476
 Rotational constants (GHZ):           8.55355     2.22551     1.76602
 Zero-point vibrational energy     178529.9 (Joules/Mol)
                                   42.66967 (Kcal/Mol)
 Warning -- explicit consideration of   5 degrees of freedom as
           vibrations may cause significant error
 Vibrational temperatures:    204.14   325.93   434.20   716.96   810.73
          (Kelvin)            930.55   955.44   995.22  1158.69  1281.07
                             1330.73  1471.81  1494.59  1621.16  1775.50
                             1822.97  1940.42  2068.93  2099.85  2265.08
                             2603.81  4679.09  4719.67  5237.82

 Zero-point correction=                           0.067998 (Hartree/Particle)
 Thermal correction to Energy=                    0.073537
 Thermal correction to Enthalpy=                  0.074481
 Thermal correction to Gibbs Free Energy=         0.038017
 Sum of electronic and zero-point Energies=           -335.017190
 Sum of electronic and thermal Energies=              -335.011652
 Sum of electronic and thermal Enthalpies=            -335.010708
 Sum of electronic and thermal Free Energies=         -335.047172

                     E (Thermal)             CV                S
                      KCal/Mol        Cal/Mol-Kelvin    Cal/Mol-Kelvin
 Total                   46.145             19.693             76.745
 Electronic               0.000              0.000              1.377
 Translational            0.889              2.981             39.566
 Rotational               0.889              2.981             26.661
 Vibrational             44.368             13.731              9.141
 Vibration     1          0.615              1.911              2.778
 Vibration     2          0.650              1.801              1.906
 Vibration     3          0.694              1.670              1.407
 Vibration     4          0.854              1.254              0.662
 Vibration     5          0.919              1.110              0.517

 Optimization completed.
    -- Stationary point found.
 Normal termination of Gaussian 09 at Tue Mar  6 14:39:20 2018.
