 Gaussian 09, Revision B.01,
 Gaussian 09:  EM64L-G09RevB.01 12-Aug-2010

 -------------------------------------------------
 #p Temperature=298.15 opt freq UB3LYP/aug-cc-pVDZ
 -------------------------------------------------

 --------------------------------------
 Pyrazole-4+-UB3LYP-aug-cc-pVDZ-Singlet
 --------------------------------------
 Symbolic Z-matrix:
 Charge =  1 Multiplicity = 1

 SCF Done:  E(UB3LYP) =  -225.140357666     A.U. after   20 cycles
 SCF Done:  E(UB3LYP) =  -225.174363717     A.U. after   16 cycles
 SCF Done:  E(UB3LYP) =  -225.184872196     A.U. after   13 cycles
 SCF Done:  E(UB3LYP) =  -225.185738173     A.U. after   13 cycles
 SCF Done:  E(UB3LYP) =  -225.185680446     A.U. after   15 cycles
 SCF Done:  E(UB3LYP) =  -225.185827892     A.U. after   14 cycles
 SCF Done:  E(UB3LYP) =  -225.185901644     A.U. after   12 cycles
 SCF Done:  E(UB3LYP) =  -225.185912928     A.U. after   11 cycles
 Optimization completed.
    -- Stationary point found.
 Normal termination of Gaussian 09 at Tue Mar  6 08:49:00 2018.

 ----------------------------------------------------------------------
 #P Geom=AllCheck Guess=TCheck SCRF=Check GenChk UB3LYP/Aug-CC-pVDZ Fre
 q
 ----------------------------------------------------------------------

 Pyrazole-4+-UB3LYP-aug-cc-pVDZ-Singlet
 --------------------------------------
 Redundant internal coordinates taken from checkpoint file:
 Pyrazole-4+-UB3LYP-aug-cc-pVDZ-Singlet.chk
 Charge =  1 Multiplicity = 1

                         Standard orientation:
 ---------------------------------------------------------------------
 Center     Atomic      Atomic             Coordinates (Angstroms)
 Number     Number       Type             X           Y           Z
 ---------------------------------------------------------------------
      1          6           0        0.222201   -1.049853    0.001483
      2          6           0        1.299412   -0.227511   -0.001163
      3          1           0        2.381801   -0.271860   -0.000969
      4          7           0       -0.787087    0.695793   -0.000333
      5          1           0       -1.393152    1.513581    0.000915
      6          6           0       -1.081614   -0.610891   -0.000479
      7          1           0       -2.049122   -1.099187   -0.001476
      8          7           0        0.561441    0.902349    0.000689
 ---------------------------------------------------------------------

 SCF Done:  E(UB3LYP) =  -225.185912928     A.U. after    1 cycles

 The electronic state is 1-A.
 Alpha  occ. eigenvalues --  -14.67914 -14.65174 -10.53530 -10.50321 -10.50209
 Alpha  occ. eigenvalues --   -1.33350  -1.11191  -1.04635  -0.88484  -0.84504
 Alpha  occ. eigenvalues --   -0.79745  -0.73063  -0.71170  -0.70901  -0.56289
 Alpha  occ. eigenvalues --   -0.54204  -0.51600
 Alpha virt. eigenvalues --   -0.39702  -0.25513  -0.19794  -0.16831  -0.13454
 Alpha virt. eigenvalues --   -0.12655  -0.11705  -0.10703  -0.10310  -0.09749
 Alpha virt. eigenvalues --   -0.06007  -0.05717  -0.04645  -0.04596  -0.03278

  Beta  occ. eigenvalues --  -14.67914 -14.65174 -10.53530 -10.50321 -10.50209
  Beta  occ. eigenvalues --   -1.33350  -1.11191  -1.04635  -0.88484  -0.84504
  Beta  occ. eigenvalues --   -0.79745  -0.73063  -0.71170  -0.70901  -0.56289
  Beta  occ. eigenvalues --   -0.54204  -0.51600
  Beta virt. eigenvalues --   -0.39702  -0.25513  -0.19794  -0.16831  -0.13454
  Beta virt. eigenvalues --   -0.12655  -0.11705  -0.10703  -0.10310  -0.09749
  Beta virt. eigenvalues --   -0.06007  -0.05717  -0.04645  -0.04596  -0.03278

 Mulliken atomic charges:
              1
     1  C    0.346827
     2  C    0.758695
     3  H   -0.357498
     4  N   -0.033262
     5  H   -0.014797
     6  C    0.840187
     7  H   -0.358501
     8  N   -0.181651
 Sum of Mulliken atomic charges =   1.00000

 Dipole moment (field-independent basis, Debye):
    X=             -1.3633    Y=             -1.1309    Z=             -0.0049  Tot=              1.7713
 Quadrupole moment (field-independent basis, Debye-Ang):
   XX=            -11.9641   YY=            -19.3990   ZZ=            -28.3298
   XY=             -2.6467   XZ=             -0.0047   YZ=              0.0071

  Exact polarizability:  49.652   1.431  47.137   0.012  -0.014  26.077
 Approx polarizability:  85.471   9.388 126.500   0.021  -0.042  36.624

                     1                      2                      3
                     A                      A                      A
 Frequencies --   214.1214               599.8038               679.8922
 Red. masses --     6.5788                 2.3142                 1.6953
 Frc consts  --     0.1777                 0.4905                 0.4617
 IR Inten    --    17.7717                62.2051                57.0542

                     4                      5                      6
                     A                      A                      A
 Frequencies --   739.7425               786.4171               794.6020
 Red. masses --     6.8155                 1.1419                 6.5447
 Frc consts  --     2.1974                 0.4161                 2.4347
 IR Inten    --   121.7195                31.2626                16.2711

                     7                      8                      9
                     A                      A                      A
 Frequencies --   802.4361               979.7007              1095.5860
 Red. masses --     1.2854                 2.2204                 1.6007
 Frc consts  --     0.4877                 1.2556                 1.1320
 IR Inten    --     8.9977                25.9304                10.0733

                    10                     11                     12
                     A                      A                      A
 Frequencies --  1161.4598              1182.4284              1312.7908
 Red. masses --     3.6268                 1.7481                 2.6826
 Frc consts  --     2.8826                 1.4400                 2.7239
 IR Inten    --     1.7329                 3.3043                 6.6853

                    13                     14                     15
                     A                      A                      A
 Frequencies --  1405.6795              1494.3574              1620.5601
 Red. masses --     2.6165                 2.5462                 5.4255
 Frc consts  --     3.0461                 3.3500                 8.3950
 IR Inten    --     6.5344                12.0087                19.5794

                    16                     17                     18
                     A                      A                      A
 Frequencies --  3290.0150              3308.1413              3561.4157
 Red. masses --     1.1056                 1.1109                 1.0855
 Frc consts  --     7.0508                 7.1632                 8.1119
 IR Inten    --    75.9428                77.3107               224.8127

 - Thermochemistry -
 -------------------
 Temperature   298.150 Kelvin.  Pressure   1.00000 Atm.
 Atom     1 has atomic number  6 and mass  12.00000

 Molecular mass:    67.02962 amu.
 Principal axes and moments of inertia in atomic units:
                           1         2         3
     Eigenvalues --   143.18104 213.84699 357.02762
           X            0.99968  -0.02537  -0.00001
           Y            0.02537   0.99968   0.00008
           Z            0.00001  -0.00008   1.00000
 This molecule is an asymmetric top.
 Rotational symmetry number  1.
 Rotational temperatures (Kelvin)      0.60493     0.40503     0.24260
 Rotational constants (GHZ):          12.60461     8.43940     5.05491
 Zero-point vibrational energy     149707.6 (Joules/Mol)
                                   35.78097 (Kcal/Mol)
 Warning -- explicit consideration of   2 degrees of freedom as
           vibrations may cause significant error
 Vibrational temperatures:    308.07   862.98   978.21  1064.32  1131.48
          (Kelvin)           1143.25  1154.53  1409.57  1576.30  1671.08
                             1701.25  1888.81  2022.46  2150.04  2331.62
                             4733.59  4759.67  5124.08

 Zero-point correction=                           0.057021 (Hartree/Particle)
 Thermal correction to Energy=                    0.061140
 Thermal correction to Enthalpy=                  0.062084
 Thermal correction to Gibbs Free Energy=         0.030516
 Sum of electronic and zero-point Energies=           -225.128892
 Sum of electronic and thermal Energies=              -225.124773
 Sum of electronic and thermal Enthalpies=            -225.123829
 Sum of electronic and thermal Free Energies=         -225.155397

                     E (Thermal)             CV                S
                      KCal/Mol        Cal/Mol-Kelvin    Cal/Mol-Kelvin
 Total                   38.366             13.919             66.440
 Electronic               0.000              0.000              0.000
 Translational            0.889              2.981             38.526
 Rotational               0.889              2.981             23.906
 Vibrational             36.588              7.958              4.008
 Vibration     1          0.644              1.819              2.008
 Vibration     2          0.958              1.032              0.450

 Normal termination of Gaussian 09 at Tue Mar  6 08:50:09 2018.
