 Gaussian 09, Revision B.01,
 Gaussian 09:  EM64L-G09RevB.01 12-Aug-2010

 -------------------------------------------------
 #p Temperature=298.15 opt freq UB3LYP/aug-cc-pVDZ
 -------------------------------------------------

 ------------------------------------
 Pyrazole-4-UB3LYP-aug-cc-pVDZ-Duplet
 ------------------------------------
 Symbolic Z-matrix:
 Charge =  0 Multiplicity = 2

 SCF Done:  E(UB3LYP) =  -225.515137340     A.U. after   17 cycles
 SCF Done:  E(UB3LYP) =  -225.532070670     A.U. after   17 cycles
 SCF Done:  E(UB3LYP) =  -225.533692803     A.U. after   17 cycles
 SCF Done:  E(UB3LYP) =  -225.533738052     A.U. after   17 cycles
 SCF Done:  E(UB3LYP) =  -225.533708113     A.U. after   17 cycles
 SCF Done:  E(UB3LYP) =  -225.533773903     A.U. after   16 cycles
 SCF Done:  E(UB3LYP) =  -225.533774411     A.U. after   11 cycles
 Optimization completed.
    -- Stationary point found.
 Normal termination of Gaussian 09 at Tue Mar  6 13:58:56 2018.

 ----------------------------------------------------------------------
 #P Geom=AllCheck Guess=TCheck SCRF=Check GenChk UB3LYP/Aug-CC-pVDZ Fre
 q
 ----------------------------------------------------------------------

 Pyrazole-4-UB3LYP-aug-cc-pVDZ-Duplet
 ------------------------------------
 Redundant internal coordinates taken from checkpoint file:
 Pyrazole-4-UB3LYP-aug-cc-pVDZ-Duplet.chk
 Charge =  0 Multiplicity = 2

                         Standard orientation:
 ---------------------------------------------------------------------
 Center     Atomic      Atomic             Coordinates (Angstroms)
 Number     Number       Type             X           Y           Z
 ---------------------------------------------------------------------
      1          6           0        0.153527   -1.227595   -0.000462
      2          6           0        1.177068   -0.263981    0.000408
      3          1           0        2.254792   -0.382850   -0.000098
      4          7           0       -0.705276    0.757957   -0.000277
      5          1           0       -1.315352    1.562925    0.000428
      6          6           0       -1.053278   -0.560517    0.000425
      7          1           0       -2.082737   -0.898333   -0.000013
      8          7           0        0.630905    0.960732   -0.000086
 ---------------------------------------------------------------------

 SCF Done:  E(UB3LYP) =  -225.533774411     A.U. after    1 cycles

 The electronic state is 2-A.
 Alpha  occ. eigenvalues --  -14.42141 -14.36814 -10.23955 -10.22186 -10.22104
 Alpha  occ. eigenvalues --   -1.06325  -0.83524  -0.79596  -0.62288  -0.59980
 Alpha  occ. eigenvalues --   -0.55288  -0.46276  -0.45286  -0.42813  -0.33115
 Alpha  occ. eigenvalues --   -0.28003  -0.27856  -0.26771
 Alpha virt. eigenvalues --   -0.01535  -0.00892   0.01252   0.01354   0.03520
 Alpha virt. eigenvalues --    0.04509   0.05309   0.05711   0.06810   0.08752
 Alpha virt. eigenvalues --    0.08809   0.10178   0.10304   0.10743   0.11329

  Beta  occ. eigenvalues --  -14.42060 -14.36655 -10.23938 -10.22082 -10.20598
  Beta  occ. eigenvalues --   -1.05881  -0.83219  -0.78091  -0.61927  -0.58770
  Beta  occ. eigenvalues --   -0.54388  -0.45924  -0.45121  -0.42091  -0.30997
  Beta  occ. eigenvalues --   -0.27616  -0.25881
  Beta virt. eigenvalues --   -0.12170  -0.01508  -0.00870   0.01350   0.01532
  Beta virt. eigenvalues --    0.04276   0.04882   0.05533   0.06166   0.06866
  Beta virt. eigenvalues --    0.08709   0.08869   0.10235   0.10560   0.10896

 Mulliken atomic charges:
              1
     1  C   -0.175120
     2  C    0.639373
     3  H   -0.390402
     4  N    0.076455
     5  H   -0.112179
     6  C    0.791840
     7  H   -0.439923
     8  N   -0.390045
 Sum of Mulliken atomic charges =   0.00000

 Dipole moment (field-independent basis, Debye):
    X=             -2.1734    Y=              0.1546    Z=              0.0014  Tot=              2.1789
 Quadrupole moment (field-independent basis, Debye-Ang):
   XX=            -23.1026   YY=            -30.2793   ZZ=            -31.5267
   XY=             -3.5112   XZ=             -0.0012   YZ=              0.0006

  Exact polarizability:  57.564   0.408  54.039  -0.004   0.008  34.221
 Approx polarizability:  92.774   0.310  92.410  -0.008   0.006  48.080

                     1                      2                      3
                     A                      A                      A
 Frequencies --   524.8866               555.5412               683.4018
 Red. masses --     1.5794                 3.7409                 2.5825
 Frc consts  --     0.2564                 0.6802                 0.7106
 IR Inten    --    38.6787                32.7073                34.1581

                     4                      5                      6
                     A                      A                      A
 Frequencies --   777.1987               850.1417               892.9847
 Red. masses --     1.3458                 1.2438                 6.1103
 Frc consts  --     0.4790                 0.5296                 2.8708
 IR Inten    --    28.4939                22.3631                21.4169

                     7                      8                      9
                     A                      A                      A
 Frequencies --   915.8923              1034.3198              1123.4154
 Red. masses --     6.9481                 1.6731                 1.7459
 Frc consts  --     3.4340                 1.0546                 1.2982
 IR Inten    --    13.5332                42.2855                15.6016

                    10                     11                     12
                     A                      A                      A
 Frequencies --  1170.2282              1252.3386              1340.4698
 Red. masses --     3.6165                 1.7762                 4.5033
 Frc consts  --     2.9180                 1.6413                 4.7676
 IR Inten    --     0.0613                 6.9770                 1.4359

                    13                     14                     15
                     A                      A                      A
 Frequencies --  1385.1116              1444.3660              1524.3695
 Red. masses --     3.9734                 2.8724                 2.4811
 Frc consts  --     4.4914                 3.5306                 3.3968
 IR Inten    --     6.7726                 6.7815                 5.1962

                    16                     17                     18
                     A                      A                      A
 Frequencies --  3268.4304              3276.5406              3646.5266
 Red. masses --     1.0968                 1.0986                 1.0819
 Frc consts  --     6.9032                 6.9491                 8.4762
 IR Inten    --     0.5913                 0.5604                76.6217

 - Thermochemistry -
 -------------------
 Temperature   298.150 Kelvin.  Pressure   1.00000 Atm.
 Atom     1 has atomic number  6 and mass  12.00000

 Molecular mass:    67.02962 amu.
 Principal axes and moments of inertia in atomic units:
                           1         2         3
     Eigenvalues --   167.57928 193.32116 360.90038
           X            0.98921  -0.14651  -0.00001
           Y            0.14651   0.98921   0.00002
           Z            0.00001  -0.00002   1.00000
 This molecule is an asymmetric top.
 Rotational symmetry number  1.
 Rotational temperatures (Kelvin)      0.51685     0.44803     0.23999
 Rotational constants (GHZ):          10.76948     9.33546     5.00066
 Zero-point vibrational energy     153517.7 (Joules/Mol)
                                   36.69162 (Kcal/Mol)
 Warning -- explicit consideration of   2 degrees of freedom as
           vibrations may cause significant error
 Vibrational temperatures:    755.19   799.30   983.26  1118.21  1223.16
          (Kelvin)           1284.80  1317.76  1488.15  1616.34  1683.70
                             1801.83  1928.63  1992.86  2078.12  2193.22
                             4702.54  4714.21  5246.53

 Zero-point correction=                           0.058472 (Hartree/Particle)
 Thermal correction to Energy=                    0.062188
 Thermal correction to Enthalpy=                  0.063133
 Thermal correction to Gibbs Free Energy=         0.031635
 Sum of electronic and zero-point Energies=           -225.475303
 Sum of electronic and thermal Energies=              -225.471586
 Sum of electronic and thermal Enthalpies=            -225.470642
 Sum of electronic and thermal Free Energies=         -225.502139

                     E (Thermal)             CV                S
                      KCal/Mol        Cal/Mol-Kelvin    Cal/Mol-Kelvin
 Total                   39.024             12.795             66.292
 Electronic               0.000              0.000              1.377
 Translational            0.889              2.981             38.526
 Rotational               0.889              2.981             23.973
 Vibrational             37.246              6.833              2.415
 Vibration     1          0.880              1.195              0.599
 Vibration     2          0.911              1.128              0.533

 Optimization completed.
    -- Stationary point found.
 Normal termination of Gaussian 09 at Tue Mar  6 14:00:09 2018.
