 Gaussian 09, Revision B.01,
 Gaussian 09:  EM64L-G09RevB.01 12-Aug-2010

 -------------------------------------------------
 #p Temperature=298.15 opt freq UB3LYP/aug-cc-pVDZ
 -------------------------------------------------

 ---------------------------------------
 Pyrazole-3-N2-UB3LYP-aug-cc-pVDZ-Duplet
 ---------------------------------------
 Symbolic Z-matrix:
 Charge =  0 Multiplicity = 2

 SCF Done:  E(UB3LYP) =  -335.034586786     A.U. after   22 cycles
 SCF Done:  E(UB3LYP) =  -335.057552269     A.U. after   20 cycles
 SCF Done:  E(UB3LYP) =  -335.060487515     A.U. after   23 cycles
 SCF Done:  E(UB3LYP) =  -335.060419213     A.U. after   23 cycles
 SCF Done:  E(UB3LYP) =  -335.060583192     A.U. after   23 cycles
 SCF Done:  E(UB3LYP) =  -335.060625871     A.U. after   18 cycles
 SCF Done:  E(UB3LYP) =  -335.060634026     A.U. after   24 cycles
 SCF Done:  E(UB3LYP) =  -335.060637521     A.U. after   15 cycles
 SCF Done:  E(UB3LYP) =  -335.052563215     A.U. after   21 cycles
 SCF Done:  E(UB3LYP) =  -335.060639201     A.U. after   21 cycles
 SCF Done:  E(UB3LYP) =  -335.082518226     A.U. after   19 cycles
 SCF Done:  E(UB3LYP) =  -335.083335201     A.U. after   19 cycles
 SCF Done:  E(UB3LYP) =  -335.083709199     A.U. after   19 cycles
 SCF Done:  E(UB3LYP) =  -335.084516095     A.U. after   19 cycles
 SCF Done:  E(UB3LYP) =  -335.084569058     A.U. after   19 cycles
 SCF Done:  E(UB3LYP) =  -335.084593887     A.U. after   14 cycles
 SCF Done:  E(UB3LYP) =  -335.084623876     A.U. after   22 cycles
 SCF Done:  E(UB3LYP) =  -335.084627004     A.U. after   13 cycles
 SCF Done:  E(UB3LYP) =  -335.084628022     A.U. after   12 cycles
 Optimization completed.
    -- Stationary point found.
 Normal termination of Gaussian 09 at Tue Mar  6 13:10:03 2018.

 ----------------------------------------------------------------------
 #P Geom=AllCheck Guess=TCheck SCRF=Check GenChk UB3LYP/Aug-CC-pVDZ Fre
 q
 ----------------------------------------------------------------------

 Pyrazole-3-N2-UB3LYP-aug-cc-pVDZ-Duplet
 ---------------------------------------
 Redundant internal coordinates taken from checkpoint file:
 Pyrazole-3-N2-UB3LYP-aug-cc-pVDZ-Duplet.chk
 Charge =  0 Multiplicity = 2

                         Standard orientation:
 ---------------------------------------------------------------------
 Center     Atomic      Atomic             Coordinates (Angstroms)
 Number     Number       Type             X           Y           Z
 ---------------------------------------------------------------------
      1          7           0        1.738618    0.472728   -0.000833
      2          7           0        2.597497   -0.347733    0.000746
      3          6           0        0.332365    0.191271   -0.000103
      4          6           0       -0.674470    1.184785    0.000211
      5          1           0       -0.543937    2.260249    0.000073
      6          7           0       -1.494073   -0.850564   -0.000012
      7          1           0       -2.104019   -1.656466   -0.000388
      8          6           0       -1.854418    0.463912    0.000231
      9          1           0       -2.893891    0.773020    0.000322
     10          7           0       -0.167617   -1.048233   -0.000193
 ---------------------------------------------------------------------

 SCF Done:  E(UB3LYP) =  -335.084628022     A.U. after    1 cycles

 The electronic state is 2-A.
 Alpha  occ. eigenvalues --  -14.44102 -14.41712 -14.39611 -14.38203 -10.26819
 Alpha  occ. eigenvalues --  -10.25424 -10.21427  -1.09027  -1.06461  -0.85849
 Alpha  occ. eigenvalues --   -0.81903  -0.72396  -0.64009  -0.57796  -0.55873
 Alpha  occ. eigenvalues --   -0.48150  -0.46942  -0.46192  -0.45831  -0.42717
 Alpha  occ. eigenvalues --   -0.40319  -0.32926  -0.28981  -0.28265  -0.20754
 Alpha virt. eigenvalues --   -0.07207  -0.02397  -0.01063  -0.00050   0.01391
 Alpha virt. eigenvalues --    0.03897   0.04149   0.05037   0.05344   0.05938
 Alpha virt. eigenvalues --    0.07687   0.08077   0.08624   0.09398   0.09650

  Beta  occ. eigenvalues --  -14.44110 -14.41357 -14.38217 -14.37999 -10.26452
  Beta  occ. eigenvalues --  -10.25413 -10.21450  -1.08753  -1.04854  -0.85400
  Beta  occ. eigenvalues --   -0.81818  -0.70758  -0.63861  -0.57704  -0.55029
  Beta  occ. eigenvalues --   -0.48060  -0.46185  -0.45596  -0.42476  -0.42053
  Beta  occ. eigenvalues --   -0.36980  -0.32811  -0.28703  -0.28212
  Beta virt. eigenvalues --   -0.06222  -0.06194  -0.02309  -0.00967  -0.00047
  Beta virt. eigenvalues --    0.01434   0.03936   0.04165   0.05078   0.05667
  Beta virt. eigenvalues --    0.06013   0.07749   0.08127   0.08678   0.09564

 Mulliken atomic charges:
              1
     1  N    0.150093
     2  N   -0.557158
     3  C   -0.127663
     4  C    1.630069
     5  H   -0.587125
     6  N    0.137602
     7  H   -0.122152
     8  C    0.322310
     9  H   -0.519075
    10  N   -0.326900
 Sum of Mulliken atomic charges =   0.00000

 Dipole moment (field-independent basis, Debye):
    X=             -5.3447    Y=              0.7157    Z=             -0.0004  Tot=              5.3924
 Quadrupole moment (field-independent basis, Debye-Ang):
   XX=            -38.4937   YY=            -38.2511   ZZ=            -41.1847
   XY=              3.7083   XZ=              0.0000   YZ=              0.0037

  Exact polarizability:  90.896  -3.496  64.280   0.004  -0.003  39.369
 Approx polarizability: 141.017  -8.281 109.514   0.014  -0.009  58.887

                     1                      2                      3
                     A                      A                      A
 Frequencies --    92.7849               239.9267               289.9840
 Red. masses --    10.0016                 7.8889                 6.5813
 Frc consts  --     0.0507                 0.2676                 0.3261
 IR Inten    --     0.4546                 0.7074                 2.0519

                     4                      5                      6
                     A                      A                      A
 Frequencies --   489.7904               579.5115               656.5211
 Red. masses --     7.4247                 2.0477                 2.1518
 Frc consts  --     1.0494                 0.4052                 0.5464
 IR Inten    --     4.8586                45.3369                11.4210

                     7                      8                      9
                     A                      A                      A
 Frequencies --   673.0063               693.2707               762.3008
 Red. masses --    11.6083                 2.8138                 1.3000
 Frc consts  --     3.0978                 0.7968                 0.4451
 IR Inten    --    27.0891                 8.7578                79.7590

                    10                     11                     12
                     A                      A                      A
 Frequencies --   860.8586               938.0222               985.2072
 Red. masses --     1.3551                 4.9241                 4.2126
 Frc consts  --     0.5917                 2.5527                 2.4091
 IR Inten    --     2.5197                 0.0793                10.2041

                    13                     14                     15
                     A                      A                      A
 Frequencies --  1056.8728              1092.0099              1220.3206
 Red. masses --     1.2984                 2.0924                 2.5139
 Frc consts  --     0.8545                 1.4701                 2.2057
 IR Inten    --    15.2517                17.6422                16.1124

                    16                     17                     18
                     A                      A                      A
 Frequencies --  1274.6840              1367.5391              1443.9036
 Red. masses --     3.4217                 4.9069                 3.6401
 Frc consts  --     3.2756                 5.4068                 4.4713
 IR Inten    --     1.9412                25.1301                11.0550

                    19                     20                     21
                     A                      A                      A
 Frequencies --  1483.0279              1547.2821              1833.0306
 Red. masses --     3.3429                 2.8573                13.8956
 Frc consts  --     4.3318                 4.0303                27.5084
 IR Inten    --    14.7039                 2.4261                22.2645

                    22                     23                     24
                     A                      A                      A
 Frequencies --  3264.3279              3286.1013              3640.0635
 Red. masses --     1.0939                 1.1057                 1.0824
 Frc consts  --     6.8676                 7.0345                 8.4498
 IR Inten    --     0.0364                 0.9674                96.2965

 - Thermochemistry -
 -------------------
 Temperature   298.150 Kelvin.  Pressure   1.00000 Atm.
 Atom     1 has atomic number  7 and mass  14.00307

 Molecular mass:    95.03577 amu.
 Principal axes and moments of inertia in atomic units:
                           1         2         3
     Eigenvalues --   209.62970 819.168531028.79809
           X            1.00000  -0.00038   0.00000
           Y            0.00038   1.00000   0.00002
           Z            0.00000  -0.00002   1.00000
 This molecule is an asymmetric top.
 Rotational symmetry number  1.
 Rotational temperatures (Kelvin)      0.41318     0.10573     0.08419
 Rotational constants (GHZ):           8.60919     2.20314     1.75422
 Zero-point vibrational energy     178066.2 (Joules/Mol)
                                   42.55885 (Kcal/Mol)
 Warning -- explicit consideration of   5 degrees of freedom as
           vibrations may cause significant error
 Vibrational temperatures:    133.50   345.20   417.22   704.70   833.79
          (Kelvin)            944.59   968.30   997.46  1096.78  1238.58
                             1349.60  1417.49  1520.60  1571.16  1755.77
                             1833.98  1967.58  2077.45  2133.74  2226.19
                             2637.32  4696.63  4727.96  5237.23

 Zero-point correction=                           0.067822 (Hartree/Particle)
 Thermal correction to Energy=                    0.073457
 Thermal correction to Enthalpy=                  0.074402
 Thermal correction to Gibbs Free Energy=         0.037546
 Sum of electronic and zero-point Energies=           -335.016806
 Sum of electronic and thermal Energies=              -335.011171
 Sum of electronic and thermal Enthalpies=            -335.010227
 Sum of electronic and thermal Free Energies=         -335.047082

                     E (Thermal)             CV                S
                      KCal/Mol        Cal/Mol-Kelvin    Cal/Mol-Kelvin
 Total                   46.095             19.822             77.570
 Electronic               0.000              0.000              1.377
 Translational            0.889              2.981             39.566
 Rotational               0.889              2.981             26.671
 Vibrational             44.318             13.861              9.955
 Vibration     1          0.602              1.954              3.600
 Vibration     2          0.657              1.779              1.803
 Vibration     3          0.686              1.692              1.474
 Vibration     4          0.846              1.273              0.684
 Vibration     5          0.936              1.076              0.486

 Optimization completed.
    -- Stationary point found.
 Normal termination of Gaussian 09 at Tue Mar  6 13:13:42 2018.
