 Gaussian 09, Revision B.01,
 Gaussian 09:  EM64L-G09RevB.01 12-Aug-2010

 -------------------------------------------------
 #p Temperature=298.15 opt freq UB3LYP/aug-cc-pVDZ
 -------------------------------------------------

 -----------------------------------------
 Pyrazine-2-N2+-UB3LYP-aug-cc-pVDZ-Triplet
 -----------------------------------------
 Symbolic Z-matrix:
 Charge =  1 Multiplicity = 3

 SCF Done:  E(UB3LYP) =  -372.819165571     A.U. after   24 cycles
 SCF Done:  E(UB3LYP) =  -372.841972986     A.U. after   20 cycles
 SCF Done:  E(UB3LYP) =  -372.847441155     A.U. after   19 cycles
 SCF Done:  E(UB3LYP) =  -372.848091039     A.U. after   18 cycles
 SCF Done:  E(UB3LYP) =  -372.848267109     A.U. after   17 cycles
 SCF Done:  E(UB3LYP) =  -372.848432906     A.U. after   17 cycles
 SCF Done:  E(UB3LYP) =  -372.848563642     A.U. after   17 cycles
 SCF Done:  E(UB3LYP) =  -372.848685708     A.U. after   16 cycles
 SCF Done:  E(UB3LYP) =  -372.848807498     A.U. after   17 cycles
 SCF Done:  E(UB3LYP) =  -372.848876612     A.U. after   16 cycles
 SCF Done:  E(UB3LYP) =  -372.848923678     A.U. after   17 cycles
 SCF Done:  E(UB3LYP) =  -372.848952257     A.U. after   16 cycles
 SCF Done:  E(UB3LYP) =  -372.848954449     A.U. after   15 cycles
 Optimization completed.
    -- Stationary point found.
 Normal termination of Gaussian 09 at Fri Jan 21 05:38:39 2005.

 ----------------------------------------------------------------------
 #P Geom=AllCheck Guess=TCheck SCRF=Check GenChk UB3LYP/Aug-CC-pVDZ Fre
 q
 ----------------------------------------------------------------------

 Pyrazine-2-N2+-UB3LYP-aug-cc-pVDZ-Triplet
 -----------------------------------------
 Redundant internal coordinates taken from checkpoint file:
 Pyrazine-2-N2+-UB3LYP-aug-cc-pVDZ-Triplet.chk
 Charge =  1 Multiplicity = 3

                         Standard orientation:
 ---------------------------------------------------------------------
 Center     Atomic      Atomic             Coordinates (Angstroms)
 Number     Number       Type             X           Y           Z
 ---------------------------------------------------------------------
      1          6           0        0.575566   -0.034308    0.112816
      2          6           0       -0.153212    1.244174    0.069433
      3          7           0        1.906802   -0.045750   -0.103546
      4          7           0        3.046568   -0.058258    0.001154
      5          1           0        0.385857    2.188779   -0.044203
      6          6           0       -2.158933    0.066585   -0.073142
      7          1           0       -3.241634    0.082719    0.050157
      8          6           0       -1.420181   -1.174403   -0.034936
      9          1           0       -1.975603   -2.110592    0.079892
     10          7           0       -0.123115   -1.181107    0.042562
     11          7           0       -1.434263    1.174659   -0.016008
 ---------------------------------------------------------------------

 SCF Done:  E(UB3LYP) =  -372.848954449     A.U. after    1 cycles

 The electronic state is 3-A.
 Alpha  occ. eigenvalues --  -14.68357 -14.65686 -14.61927 -14.60165 -10.53341
 Alpha  occ. eigenvalues --  -10.48910 -10.48074 -10.46716  -1.33815  -1.24490
 Alpha  occ. eigenvalues --   -1.17610  -1.08357  -0.98290  -0.90648  -0.85247
 Alpha  occ. eigenvalues --   -0.78522  -0.75550  -0.72440  -0.69316  -0.67934
 Alpha  occ. eigenvalues --   -0.67032  -0.65680  -0.65325  -0.58897  -0.57495
 Alpha  occ. eigenvalues --   -0.52603  -0.49588  -0.39459
 Alpha virt. eigenvalues --   -0.28372  -0.27373  -0.24044  -0.15173  -0.13116
 Alpha virt. eigenvalues --   -0.12138  -0.11274  -0.10746  -0.09779  -0.09366
 Alpha virt. eigenvalues --   -0.07874  -0.06557  -0.05508  -0.05207  -0.04644

  Beta  occ. eigenvalues --  -14.68262 -14.64661 -14.61190 -14.59246 -10.52998
  Beta  occ. eigenvalues --  -10.48630 -10.48053 -10.46062  -1.32705  -1.23111
  Beta  occ. eigenvalues --   -1.15971  -1.06854  -0.96654  -0.89506  -0.83643
  Beta  occ. eigenvalues --   -0.77336  -0.73919  -0.70026  -0.67867  -0.66706
  Beta  occ. eigenvalues --   -0.65745  -0.64519  -0.63193  -0.56762  -0.51808
  Beta  occ. eigenvalues --   -0.49716
  Beta virt. eigenvalues --   -0.40291  -0.30322  -0.27193  -0.26077  -0.20405
  Beta virt. eigenvalues --   -0.14868  -0.12722  -0.11285  -0.10780  -0.10094
  Beta virt. eigenvalues --   -0.09277  -0.08910  -0.07729  -0.06338  -0.05170

 Mulliken atomic charges:
              1
     1  C    0.599096
     2  C    0.536626
     3  N    0.417092
     4  N   -0.463212
     5  H   -0.458898
     6  C    0.681350
     7  H   -0.428002
     8  C    0.744749
     9  H   -0.433387
    10  N   -0.176834
    11  N   -0.018581
 Sum of Mulliken atomic charges =   1.00000

 Dipole moment (field-independent basis, Debye):
    X=             -2.2814    Y=              0.4464    Z=              0.0626  Tot=              2.3255
 Quadrupole moment (field-independent basis, Debye-Ang):
   XX=            -24.2073   YY=            -34.3546   ZZ=            -43.0079
   XY=              5.4968   XZ=             -0.4712   YZ=             -0.1028

  Exact polarizability: 135.753  -2.492  82.705   0.051  -0.040  37.249
 Approx polarizability: 274.619 -18.212 173.477   1.600  -0.916  57.189

                     1                      2                      3
                     A                      A                      A
 Frequencies --   123.6521               151.4094               185.7182
 Red. masses --     6.9755                 9.0131                11.0471
 Frc consts  --     0.0628                 0.1217                 0.2245
 IR Inten    --     6.2377                 0.7604                15.0506

                     4                      5                      6
                     A                      A                      A
 Frequencies --   399.6659               437.6051               466.9462
 Red. masses --     3.3909                 4.6116                 8.8078
 Frc consts  --     0.3191                 0.5203                 1.1315
 IR Inten    --     1.9129                19.5510                18.3145

                     7                      8                      9
                     A                      A                      A
 Frequencies --   502.8660               561.1389               618.7551
 Red. masses --     6.5322                 4.0359                 4.9857
 Frc consts  --     0.9732                 0.7487                 1.1246
 IR Inten    --     5.8672                17.6976                48.4798

                    10                     11                     12
                     A                      A                      A
 Frequencies --   708.1423               743.8067               812.4622
 Red. masses --     1.5151                 6.8961                 1.6588
 Frc consts  --     0.4476                 2.2479                 0.6451
 IR Inten    --    35.4904               111.6052                19.2764

                    13                     14                     15
                     A                      A                      A
 Frequencies --   845.3246               904.2918               989.0566
 Red. masses --     3.2993                 1.5538                 2.9597
 Frc consts  --     1.3890                 0.7486                 1.7059
 IR Inten    --   186.2985                23.6766                29.6697

                    16                     17                     18
                     A                      A                      A
 Frequencies --  1128.6922              1171.4948              1243.0890
 Red. masses --     2.9440                 1.9870                 1.6195
 Frc consts  --     2.2098                 1.6067                 1.4745
 IR Inten    --    54.0292                17.2745                43.8889

                    19                     20                     21
                     A                      A                      A
 Frequencies --  1282.5738              1342.5521              1397.8607
 Red. masses --     1.9772                 2.7617                 2.9134
 Frc consts  --     1.9163                 2.9328                 3.3541
 IR Inten    --    17.3599                46.3404                53.2005

                    22                     23                     24
                     A                      A                      A
 Frequencies --  1489.3525              1614.3417              2086.4848
 Red. masses --     5.0884                10.7504                13.8773
 Frc consts  --     6.6500                16.5069                35.5947
 IR Inten    --    27.6301               145.7676               228.3886

                    25                     26                     27
                     A                      A                      A
 Frequencies --  3161.9735              3170.3940              3213.7920
 Red. masses --     1.0898                 1.0913                 1.0933
 Frc consts  --     6.4199                 6.4630                 6.6529
 IR Inten    --    29.3195                42.4726                65.2759

 - Thermochemistry -
 -------------------
 Temperature   298.150 Kelvin.  Pressure   1.00000 Atm.
 Atom     1 has atomic number  6 and mass  12.00000

 Molecular mass:   107.03577 amu.
 Principal axes and moments of inertia in atomic units:
                           1         2         3
     Eigenvalues --   299.368801104.635891400.58937
           X            0.99978   0.02087  -0.00115
           Y           -0.02088   0.99978  -0.00318
           Z            0.00108   0.00321   0.99999
 This molecule is an asymmetric top.
 Rotational symmetry number  1.
 Rotational temperatures (Kelvin)      0.28932     0.07841     0.06184
 Rotational constants (GHZ):           6.02849     1.63379     1.28856
 Zero-point vibrational energy     183946.4 (Joules/Mol)
                                   43.96425 (Kcal/Mol)
 Warning -- explicit consideration of   9 degrees of freedom as
           vibrations may cause significant error
 Vibrational temperatures:    177.91   217.84   267.21   575.03   629.62
          (Kelvin)            671.83   723.51   807.35   890.25  1018.86
                             1070.17  1168.95  1216.23  1301.07  1423.03
                             1623.93  1685.52  1788.53  1845.34  1931.63
                             2011.21  2142.84  2322.67  3001.98  4549.37
                             4561.48  4623.92

 Zero-point correction=                           0.070061 (Hartree/Particle)
 Thermal correction to Energy=                    0.076728
 Thermal correction to Enthalpy=                  0.077673
 Thermal correction to Gibbs Free Energy=         0.038130
 Sum of electronic and zero-point Energies=           -372.778893
 Sum of electronic and thermal Energies=              -372.772226
 Sum of electronic and thermal Enthalpies=            -372.771282
 Sum of electronic and thermal Free Energies=         -372.810824

                     E (Thermal)             CV                S
                      KCal/Mol        Cal/Mol-Kelvin    Cal/Mol-Kelvin
 Total                   48.148             24.027             83.223
 Electronic               0.000              0.000              2.183
 Translational            0.889              2.981             39.921
 Rotational               0.889              2.981             27.629
 Vibrational             46.370             18.065             13.490
 Vibration     1          0.610              1.929              3.042
 Vibration     2          0.619              1.901              2.654
 Vibration     3          0.632              1.859              2.270
 Vibration     4          0.766              1.471              0.964
 Vibration     5          0.798              1.388              0.834
 Vibration     6          0.824              1.323              0.746
 Vibration     7          0.858              1.244              0.651
 Vibration     8          0.917              1.115              0.522
 Vibration     9          0.979              0.992              0.419

 Optimization completed.
    -- Stationary point found.
 Normal termination of Gaussian 09 at Fri Jan 21 05:44:03 2005.
