 Gaussian 09, Revision B.01,
 Gaussian 09:  EM64L-G09RevB.01 12-Aug-2010

 -------------------------------------------------
 #p Temperature=298.15 opt freq UB3LYP/aug-cc-pVDZ
 -------------------------------------------------

 ------------------------------------
 Pyrazole-3-UB3LYP-aug-cc-pVDZ-Duplet
 ------------------------------------
 Symbolic Z-matrix:
 Charge =  0 Multiplicity = 2

 SCF Done:  E(UB3LYP) =  -225.513531507     A.U. after   16 cycles
 SCF Done:  E(UB3LYP) =  -225.535514146     A.U. after   17 cycles
 SCF Done:  E(UB3LYP) =  -225.538283649     A.U. after   17 cycles
 SCF Done:  E(UB3LYP) =  -225.538470822     A.U. after   18 cycles
 SCF Done:  E(UB3LYP) =  -225.538446942     A.U. after   18 cycles
 SCF Done:  E(UB3LYP) =  -225.538482705     A.U. after   18 cycles
 SCF Done:  E(UB3LYP) =  -225.538487028     A.U. after   18 cycles
 Optimization completed.
    -- Stationary point found.
 Normal termination of Gaussian 09 at Tue Mar  6 13:15:48 2018.

 ----------------------------------------------------------------------
 #P Geom=AllCheck Guess=TCheck SCRF=Check GenChk UB3LYP/Aug-CC-pVDZ Fre
 q
 ----------------------------------------------------------------------

 Pyrazole-3-UB3LYP-aug-cc-pVDZ-Duplet
 ------------------------------------
 Redundant internal coordinates taken from checkpoint file:
 Pyrazole-3-UB3LYP-aug-cc-pVDZ-Duplet.chk
 Charge =  0 Multiplicity = 2

                         Standard orientation:
 ---------------------------------------------------------------------
 Center     Atomic      Atomic             Coordinates (Angstroms)
 Number     Number       Type             X           Y           Z
 ---------------------------------------------------------------------
      1          6           0        0.150242   -1.190955   -0.000137
      2          6           0        1.208596   -0.251997    0.000132
      3          1           0        2.278277   -0.419422    0.000017
      4          7           0       -0.802063    0.672804   -0.000112
      5          1           0       -1.580774    1.315511    0.000440
      6          6           0        0.528926    0.960455   -0.000006
      7          1           0        0.891739    1.983659   -0.000199
      8          7           0       -1.043055   -0.670627    0.000084
 ---------------------------------------------------------------------

 SCF Done:  E(UB3LYP) =  -225.538487028     A.U. after    1 cycles

 The electronic state is 2-A.
 Alpha  occ. eigenvalues --  -14.42192 -14.36531 -10.24401 -10.23878 -10.20396
 Alpha  occ. eigenvalues --   -1.06424  -0.83995  -0.79723  -0.62592  -0.58834
 Alpha  occ. eigenvalues --   -0.56367  -0.45407  -0.45265  -0.44163  -0.33506
 Alpha  occ. eigenvalues --   -0.28300  -0.27066  -0.26702
 Alpha virt. eigenvalues --   -0.01656  -0.00867   0.00588   0.01754   0.03991
 Alpha virt. eigenvalues --    0.04825   0.05013   0.05451   0.06636   0.08531
 Alpha virt. eigenvalues --    0.08975   0.09723   0.10020   0.10458   0.11148

  Beta  occ. eigenvalues --  -14.42008 -14.36439 -10.24330 -10.22300 -10.20262
  Beta  occ. eigenvalues --   -1.05896  -0.83172  -0.79090  -0.62151  -0.56777
  Beta  occ. eigenvalues --   -0.55852  -0.45159  -0.44889  -0.43312  -0.31930
  Beta  occ. eigenvalues --   -0.27296  -0.26704
  Beta virt. eigenvalues --   -0.11188  -0.01586  -0.00641   0.00678   0.01861
  Beta virt. eigenvalues --    0.04794   0.05385   0.05518   0.05608   0.06690
  Beta virt. eigenvalues --    0.08638   0.09038   0.09778   0.10275   0.10558

 Mulliken atomic charges:
              1
     1  C   -0.298883
     2  C    1.046258
     3  H   -0.462019
     4  N    0.099326
     5  H   -0.119261
     6  C    0.572831
     7  H   -0.496094
     8  N   -0.342157
 Sum of Mulliken atomic charges =   0.00000

 Dipole moment (field-independent basis, Debye):
    X=              0.7632    Y=              3.0650    Z=              0.0005  Tot=              3.1586
 Quadrupole moment (field-independent basis, Debye-Ang):
   XX=            -27.2128   YY=            -26.7053   ZZ=            -31.4727
   XY=             -3.6089   XZ=             -0.0015   YZ=              0.0007

  Exact polarizability:  55.105  -0.700  54.893   0.000   0.001  33.473
 Approx polarizability:  90.333  -2.662  89.739   0.001   0.001  47.581

                     1                      2                      3
                     A                      A                      A
 Frequencies --   479.8158               595.1229               649.9221
 Red. masses --     1.6699                 6.2521                 2.1878
 Frc consts  --     0.2265                 1.3046                 0.5445
 IR Inten    --    56.3317                 0.7397                13.0052

                     4                      5                      6
                     A                      A                      A
 Frequencies --   739.0267               842.4218               875.7766
 Red. masses --     1.1768                 1.3131                 6.9884
 Frc consts  --     0.3787                 0.5491                 3.1580
 IR Inten    --    83.6075                 0.1123                22.8976

                     7                      8                      9
                     A                      A                      A
 Frequencies --   918.3210              1022.6739              1057.6371
 Red. masses --     6.1016                 1.7743                 1.6678
 Frc consts  --     3.0317                 1.0933                 1.0992
 IR Inten    --     0.6569                26.6049                12.1003

                    10                     11                     12
                     A                      A                      A
 Frequencies --  1157.8136              1194.3671              1345.3458
 Red. masses --     1.9889                 3.7000                 2.3163
 Frc consts  --     1.5709                 3.1097                 2.4701
 IR Inten    --     6.4263                 9.4258                 1.9117

                    13                     14                     15
                     A                      A                      A
 Frequencies --  1384.4431              1469.6306              1536.0496
 Red. masses --     4.9317                 2.3624                 4.1224
 Frc consts  --     5.5692                 3.0063                 5.7308
 IR Inten    --    15.7467                 8.6427                23.0500

                    16                     17                     18
                     A                      A                      A
 Frequencies --  3253.5344              3289.7289              3653.0059
 Red. masses --     1.0948                 1.1018                 1.0823
 Frc consts  --     6.8281                 7.0252                 8.5098
 IR Inten    --     0.0529                 0.7774                80.6736

 - Thermochemistry -
 -------------------
 Temperature   298.150 Kelvin.  Pressure   1.00000 Atm.
 Atom     1 has atomic number  6 and mass  12.00000

 Molecular mass:    67.02962 amu.
 Principal axes and moments of inertia in atomic units:
                           1         2         3
     Eigenvalues --   168.01116 193.26322 361.27437
           X            0.98532  -0.17069  -0.00002
           Y            0.17069   0.98532   0.00000
           Z            0.00001  -0.00001   1.00000
 This molecule is an asymmetric top.
 Rotational symmetry number  1.
 Rotational temperatures (Kelvin)      0.51552     0.44817     0.23975
 Rotational constants (GHZ):          10.74179     9.33826     4.99549
 Zero-point vibrational energy     152312.4 (Joules/Mol)
                                   36.40353 (Kcal/Mol)
 Warning -- explicit consideration of   2 degrees of freedom as
           vibrations may cause significant error
 Vibrational temperatures:    690.35   856.25   935.09  1063.29  1212.06
          (Kelvin)           1260.05  1321.26  1471.40  1521.70  1665.83
                             1718.43  1935.65  1991.90  2114.47  2210.03
                             4681.10  4733.18  5255.85

 Zero-point correction=                           0.058013 (Hartree/Particle)
 Thermal correction to Energy=                    0.061784
 Thermal correction to Enthalpy=                  0.062728
 Thermal correction to Gibbs Free Energy=         0.031151
 Sum of electronic and zero-point Energies=           -225.480474
 Sum of electronic and thermal Energies=              -225.476703
 Sum of electronic and thermal Enthalpies=            -225.475759
 Sum of electronic and thermal Free Energies=         -225.507336

                     E (Thermal)             CV                S
                      KCal/Mol        Cal/Mol-Kelvin    Cal/Mol-Kelvin
 Total                   38.770             13.078             66.458
 Electronic               0.000              0.000              1.377
 Translational            0.889              2.981             38.526
 Rotational               0.889              2.981             23.977
 Vibrational             36.992              7.117              2.578
 Vibration     1          0.836              1.295              0.711
 Vibration     2          0.953              1.042              0.458

 Optimization completed.
    -- Stationary point found.
 Normal termination of Gaussian 09 at Tue Mar  6 13:17:00 2018.
