 Gaussian 09, Revision B.01,
 Gaussian 09:  EM64L-G09RevB.01 12-Aug-2010

 -------------------------------------------------
 #p Temperature=298.15 opt freq UB3LYP/aug-cc-pVDZ
 -------------------------------------------------

 -----------------------------------------
 Pyrazole-5-N2+-UB3LYP-aug-cc-pVDZ-Triplet
 -----------------------------------------
 Symbolic Z-matrix:
 Charge =  1 Multiplicity = 3

 SCF Done:  E(UB3LYP) =  -334.693056632     A.U. after   23 cycles
 SCF Done:  E(UB3LYP) =  -334.711678461     A.U. after   21 cycles
 SCF Done:  E(UB3LYP) =  -334.714254312     A.U. after   21 cycles
 SCF Done:  E(UB3LYP) =  -334.715258304     A.U. after   20 cycles
 SCF Done:  E(UB3LYP) =  -334.714883695     A.U. after   21 cycles
 SCF Done:  E(UB3LYP) =  -334.716176397     A.U. after   18 cycles
 SCF Done:  E(UB3LYP) =  -334.716889203     A.U. after   21 cycles
 SCF Done:  E(UB3LYP) =  -334.717749185     A.U. after   17 cycles
 SCF Done:  E(UB3LYP) =  -334.718027765     A.U. after   17 cycles
 SCF Done:  E(UB3LYP) =  -334.718084528     A.U. after   16 cycles
 SCF Done:  E(UB3LYP) =  -334.732393581     A.U. after   18 cycles
 SCF Done:  E(UB3LYP) =  -334.732556150     A.U. after   17 cycles
 SCF Done:  E(UB3LYP) =  -334.732595736     A.U. after   16 cycles
 SCF Done:  E(UB3LYP) =  -334.732588409     A.U. after   18 cycles
 SCF Done:  E(UB3LYP) =  -334.732626061     A.U. after   17 cycles
 SCF Done:  E(UB3LYP) =  -334.732634887     A.U. after   16 cycles
 SCF Done:  E(UB3LYP) =  -334.732638047     A.U. after   16 cycles
 SCF Done:  E(UB3LYP) =  -334.732639559     A.U. after   22 cycles
 SCF Done:  E(UB3LYP) =  -334.732640579     A.U. after   22 cycles
 Optimization completed.
    -- Stationary point found.
 Normal termination of Gaussian 09 at Fri Jan 21 08:00:41 2005.

 ----------------------------------------------------------------------
 #P Geom=AllCheck Guess=TCheck SCRF=Check GenChk UB3LYP/Aug-CC-pVDZ Fre
 q
 ----------------------------------------------------------------------

 Pyrazole-5-N2+-UB3LYP-aug-cc-pVDZ-Triplet
 -----------------------------------------
 Redundant internal coordinates taken from checkpoint file:
 Pyrazole-5-N2+-UB3LYP-aug-cc-pVDZ-Triplet.chk
 Charge =  1 Multiplicity = 3

                         Standard orientation:
 ---------------------------------------------------------------------
 Center     Atomic      Atomic             Coordinates (Angstroms)
 Number     Number       Type             X           Y           Z
 ---------------------------------------------------------------------
      1          7           0       -1.699490   -0.473255   -0.000505
      2          7           0       -2.564711    0.365328   -0.000340
      3          6           0       -0.354426   -0.105456    0.000953
      4          7           0        0.604423   -1.091818    0.000427
      5          1           0        0.454120   -2.101536    0.000368
      6          6           0        1.669639    0.801811   -0.000388
      7          1           0        2.565781    1.416080   -0.001109
      8          6           0        0.348471    1.155018    0.000407
      9          1           0       -0.108077    2.140470    0.001158
     10          7           0        1.817788   -0.595005   -0.000475
 ---------------------------------------------------------------------

 SCF Done:  E(UB3LYP) =  -334.732640579     A.U. after    1 cycles

 The electronic state is 3-A.
 Alpha  occ. eigenvalues --  -14.68152 -14.66209 -14.65091 -14.64481 -10.56544
 Alpha  occ. eigenvalues --  -10.47238 -10.45984  -1.34538  -1.30628  -1.10078
 Alpha  occ. eigenvalues --   -1.06812  -0.95019  -0.87106  -0.86179  -0.75684
 Alpha  occ. eigenvalues --   -0.73760  -0.70542  -0.69868  -0.66687  -0.66329
 Alpha  occ. eigenvalues --   -0.63464  -0.56694  -0.53633  -0.52869  -0.44902
 Alpha virt. eigenvalues --   -0.32208  -0.24221  -0.18423  -0.16577  -0.13866
 Alpha virt. eigenvalues --   -0.12838  -0.11147  -0.10684  -0.10363  -0.08251
 Alpha virt. eigenvalues --   -0.06334  -0.06156  -0.05198  -0.04821  -0.04201

  Beta  occ. eigenvalues --  -14.68351 -14.65240 -14.64931 -14.62336 -10.55506
  Beta  occ. eigenvalues --  -10.47231 -10.45889  -1.33428  -1.28374  -1.08109
  Beta  occ. eigenvalues --   -1.05726  -0.92758  -0.86759  -0.85378  -0.74312
  Beta  occ. eigenvalues --   -0.71009  -0.70004  -0.67758  -0.64320  -0.63737
  Beta  occ. eigenvalues --   -0.59570  -0.55354  -0.52764
  Beta virt. eigenvalues --   -0.42675  -0.28952  -0.28266  -0.21480  -0.16455
  Beta virt. eigenvalues --   -0.15752  -0.13721  -0.12709  -0.10972  -0.10588
  Beta virt. eigenvalues --   -0.10043  -0.07968  -0.06329  -0.05533  -0.04921

 Mulliken atomic charges:
              1
     1  N    0.164563
     2  N   -0.310876
     3  C    0.171318
     4  N    0.120301
     5  H   -0.047854
     6  C    0.326845
     7  H   -0.382136
     8  C    1.723288
     9  H   -0.492150
    10  N   -0.273299
 Sum of Mulliken atomic charges =   1.00000

 Dipole moment (field-independent basis, Debye):
    X=              1.8805    Y=              0.1860    Z=              0.0026  Tot=              1.8897
 Quadrupole moment (field-independent basis, Debye-Ang):
   XX=            -31.3284   YY=            -25.3352   ZZ=            -37.0357
   XY=              2.9524   XZ=             -0.0032   YZ=             -0.0027

  Exact polarizability:  86.612  -3.271  56.881  -0.004   0.000  32.795
 Approx polarizability: 147.256 -14.387  96.989  -0.016  -0.002  49.952

                     1                      2                      3
                     A                      A                      A
 Frequencies --    75.1302               221.6080               224.1425
 Red. masses --    10.5696                 6.9228                 7.7090
 Frc consts  --     0.0352                 0.2003                 0.2282
 IR Inten    --     0.8044                 5.6337                 4.7591

                     4                      5                      6
                     A                      A                      A
 Frequencies --   450.3094               491.3638               519.4862
 Red. masses --     3.9465                 8.4024                10.2056
 Frc consts  --     0.4715                 1.1953                 1.6227
 IR Inten    --     0.5984                 9.6947                64.6031

                     7                      8                      9
                     A                      A                      A
 Frequencies --   637.6233               716.8466               719.9539
 Red. masses --     4.4580                 1.1339                 9.3642
 Frc consts  --     1.0679                 0.3433                 2.8598
 IR Inten    --     0.0913                82.1391                18.4818

                    10                     11                     12
                     A                      A                      A
 Frequencies --   817.0061               951.7603               962.5762
 Red. masses --     1.3115                 1.3994                 3.7925
 Frc consts  --     0.5158                 0.7469                 2.0704
 IR Inten    --    61.8416                 0.3751                44.9452

                    13                     14                     15
                     A                      A                      A
 Frequencies --  1004.0895              1010.8752              1105.6542
 Red. masses --     2.9383                 4.7512                 1.3674
 Frc consts  --     1.7454                 2.8605                 0.9849
 IR Inten    --    13.8626                18.4656                 9.3899

                    16                     17                     18
                     A                      A                      A
 Frequencies --  1264.0449              1299.4947              1357.5285
 Red. masses --     4.8275                 1.5905                 5.3058
 Frc consts  --     4.5446                 1.5825                 5.7610
 IR Inten    --    12.2851                31.9975                24.2220

                    19                     20                     21
                     A                      A                      A
 Frequencies --  1456.3432              1533.7269              1677.5087
 Red. masses --     1.6129                 4.8217                12.3100
 Frc consts  --     2.0155                 6.6826                20.4098
 IR Inten    --   121.5505                29.8731                53.5596

                    22                     23                     24
                     A                      A                      A
 Frequencies --  3261.5358              3277.2275              3529.7625
 Red. masses --     1.0951                 1.1096                 1.0853
 Frc consts  --     6.8633                 7.0217                 7.9668
 IR Inten    --    26.6468                39.1732               270.7478

 - Thermochemistry -
 -------------------
 Temperature   298.150 Kelvin.  Pressure   1.00000 Atm.
 Atom     1 has atomic number  7 and mass  14.00307

 Molecular mass:    95.03577 amu.
 Principal axes and moments of inertia in atomic units:
                           1         2         3
     Eigenvalues --   219.77265 811.204151030.97659
           X            0.99989   0.01497  -0.00001
           Y           -0.01497   0.99989   0.00000
           Z            0.00001   0.00000   1.00000
 This molecule is an asymmetric top.
 Rotational symmetry number  1.
 Rotational temperatures (Kelvin)      0.39411     0.10677     0.08401
 Rotational constants (GHZ):           8.21186     2.22477     1.75052
 Zero-point vibrational energy     170860.2 (Joules/Mol)
                                   40.83657 (Kcal/Mol)
 Warning -- explicit consideration of   6 degrees of freedom as
           vibrations may cause significant error
 Vibrational temperatures:    108.10   318.84   322.49   647.89   706.96
          (Kelvin)            747.42   917.40  1031.38  1035.85  1175.49
                             1369.37  1384.93  1444.66  1454.42  1590.79
                             1818.68  1869.68  1953.18  2095.35  2206.69
                             2413.56  4692.62  4715.19  5078.53

 Zero-point correction=                           0.065077 (Hartree/Particle)
 Thermal correction to Energy=                    0.071102
 Thermal correction to Enthalpy=                  0.072046
 Thermal correction to Gibbs Free Energy=         0.033960
 Sum of electronic and zero-point Energies=           -334.667563
 Sum of electronic and thermal Energies=              -334.661538
 Sum of electronic and thermal Enthalpies=            -334.660594
 Sum of electronic and thermal Free Energies=         -334.698681

                     E (Thermal)             CV                S
                      KCal/Mol        Cal/Mol-Kelvin    Cal/Mol-Kelvin
 Total                   44.617             21.038             80.160
 Electronic               0.000              0.000              2.183
 Translational            0.889              2.981             39.566
 Rotational               0.889              2.981             26.711
 Vibrational             42.840             15.077             11.700
 Vibration     1          0.599              1.966              4.014
 Vibration     2          0.648              1.808              1.946
 Vibration     3          0.649              1.804              1.925
 Vibration     4          0.809              1.360              0.795
 Vibration     5          0.847              1.269              0.680
 Vibration     6          0.874              1.207              0.611

 Optimization completed.
    -- Stationary point found.
 Normal termination of Gaussian 09 at Fri Jan 21 08:04:15 2005.
