 Gaussian 09, Revision B.01,
 Gaussian 09:  EM64L-G09RevB.01 12-Aug-2010

 -------------------------------------------------
 #p Temperature=298.15 opt freq UB3LYP/aug-cc-pVDZ
 -------------------------------------------------

 -----------------------------------------
 Pyrazole-5-N2+-UB3LYP-aug-cc-pVDZ-Singlet
 -----------------------------------------
 Symbolic Z-matrix:
 Charge =  1 Multiplicity = 1

 SCF Done:  E(UB3LYP) =  -334.789796527     A.U. after   16 cycles
 SCF Done:  E(UB3LYP) =  -334.810428783     A.U. after   13 cycles
 SCF Done:  E(UB3LYP) =  -334.812169460     A.U. after   12 cycles
 SCF Done:  E(UB3LYP) =  -334.811977433     A.U. after   16 cycles
 SCF Done:  E(UB3LYP) =  -334.812319303     A.U. after   16 cycles
 SCF Done:  E(UB3LYP) =  -334.812409261     A.U. after   16 cycles
 SCF Done:  E(UB3LYP) =  -334.812426567     A.U. after   17 cycles
 SCF Done:  E(UB3LYP) =  -334.812426851     A.U. after   10 cycles
 SCF Done:  E(UB3LYP) =  -334.812428338     A.U. after   17 cycles
 Optimization completed.
    -- Stationary point found.
 Normal termination of Gaussian 09 at Tue Mar  6 08:57:57 2018.

 ----------------------------------------------------------------------
 #P Geom=AllCheck Guess=TCheck SCRF=Check GenChk UB3LYP/Aug-CC-pVDZ Fre
 q
 ----------------------------------------------------------------------

 Pyrazole-5-N2+-UB3LYP-aug-cc-pVDZ-Singlet
 -----------------------------------------
 Redundant internal coordinates taken from checkpoint file:
 Pyrazole-5-N2+-UB3LYP-aug-cc-pVDZ-Singlet.chk
 Charge =  1 Multiplicity = 1

                         Standard orientation:
 ---------------------------------------------------------------------
 Center     Atomic      Atomic             Coordinates (Angstroms)
 Number     Number       Type             X           Y           Z
 ---------------------------------------------------------------------
      1          7           0        1.657632    0.039721   -0.000106
      2          7           0        2.776479    0.018209    0.000018
      3          6           0        0.309527    0.074907   -0.000154
      4          7           0       -0.463544   -1.067695    0.000321
      5          1           0       -0.171959   -2.041715    0.000544
      6          6           0       -1.819947    0.591310    0.000088
      7          1           0       -2.790800    1.077557    0.000418
      8          6           0       -0.550215    1.182314    0.000025
      9          1           0       -0.276476    2.232628    0.000301
     10          7           0       -1.741560   -0.755900   -0.000377
 ---------------------------------------------------------------------

 SCF Done:  E(UB3LYP) =  -334.812428338     A.U. after    1 cycles

 The electronic state is 1-A.
 Alpha  occ. eigenvalues --  -14.75431 -14.71556 -14.65323 -14.59493 -10.52715
 Alpha  occ. eigenvalues --  -10.43596 -10.42886  -1.40463  -1.29925  -1.12394
 Alpha  occ. eigenvalues --   -1.04475  -0.96569  -0.84567  -0.83758  -0.76101
 Alpha  occ. eigenvalues --   -0.74609  -0.72340  -0.69807  -0.67319  -0.67125
 Alpha  occ. eigenvalues --   -0.63215  -0.51758  -0.50420  -0.49099
 Alpha virt. eigenvalues --   -0.32044  -0.31578  -0.19182  -0.17039  -0.15263
 Alpha virt. eigenvalues --   -0.13551  -0.12006  -0.11047  -0.10445  -0.09403
 Alpha virt. eigenvalues --   -0.08705  -0.06014  -0.05696  -0.05323  -0.04899

  Beta  occ. eigenvalues --  -14.75431 -14.71556 -14.65323 -14.59493 -10.52715
  Beta  occ. eigenvalues --  -10.43596 -10.42886  -1.40463  -1.29925  -1.12394
  Beta  occ. eigenvalues --   -1.04475  -0.96569  -0.84567  -0.83758  -0.76101
  Beta  occ. eigenvalues --   -0.74609  -0.72340  -0.69807  -0.67319  -0.67125
  Beta  occ. eigenvalues --   -0.63215  -0.51758  -0.50420  -0.49099
  Beta virt. eigenvalues --   -0.32044  -0.31578  -0.19182  -0.17039  -0.15263
  Beta virt. eigenvalues --   -0.13551  -0.12006  -0.11047  -0.10445  -0.09403
  Beta virt. eigenvalues --   -0.08705  -0.06014  -0.05696  -0.05323  -0.04899

 Mulliken atomic charges:
              1
     1  N    0.577394
     2  N   -0.448567
     3  C    0.330038
     4  N    0.206903
     5  H   -0.072658
     6  C    0.317983
     7  H   -0.393416
     8  C    1.320274
     9  H   -0.515013
    10  N   -0.322938
 Sum of Mulliken atomic charges =   1.00000

 Dipole moment (field-independent basis, Debye):
    X=              2.1753    Y=              0.4280    Z=              0.0014  Tot=              2.2170
 Quadrupole moment (field-independent basis, Debye-Ang):
   XX=            -25.5356   YY=            -26.0309   ZZ=            -38.0248
   XY=             -4.3174   XZ=             -0.0022   YZ=             -0.0011

  Exact polarizability:  99.892  -1.192  55.155   0.001   0.000  32.676
 Approx polarizability: 215.594   2.379  96.815   0.009   0.000  49.255

                     1                      2                      3
                     A                      A                      A
 Frequencies --   164.1336               185.9023               491.1279
 Red. masses --     7.2982                 7.2000                 8.2280
 Frc consts  --     0.1158                 0.1466                 1.1693
 IR Inten    --     1.4409                 2.7898                 0.0024

                     4                      5                      6
                     A                      A                      A
 Frequencies --   531.9969               547.4871               583.2551
 Red. masses --     8.6618                 2.2005                 8.7093
 Frc consts  --     1.4444                 0.3886                 1.7456
 IR Inten    --     0.1828                28.7707                 2.6642

                     7                      8                      9
                     A                      A                      A
 Frequencies --   601.4951               670.7884               816.3163
 Red. masses --     3.1065                 2.1429                 1.2105
 Frc consts  --     0.6622                 0.5681                 0.4753
 IR Inten    --     6.6501                49.2747                62.0804

                    10                     11                     12
                     A                      A                      A
 Frequencies --   915.0907               925.6817              1008.8538
 Red. masses --     6.0075                 1.3818                 4.0109
 Frc consts  --     2.9640                 0.6976                 2.4052
 IR Inten    --    30.4504                 1.5644                29.7607

                    13                     14                     15
                     A                      A                      A
 Frequencies --  1059.9467              1152.9020              1254.6854
 Red. masses --     1.4119                 2.0390                 2.6443
 Frc consts  --     0.9346                 1.5968                 2.4526
 IR Inten    --    32.5373                18.3947                68.2902

                    16                     17                     18
                     A                      A                      A
 Frequencies --  1312.5351              1323.9101              1434.4735
 Red. masses --     4.0717                 3.3392                 2.8188
 Frc consts  --     4.1328                 3.4484                 3.4174
 IR Inten    --    49.9184                86.1126                 0.3371

                    19                     20                     21
                     A                      A                      A
 Frequencies --  1447.1676              1525.4676              2310.1912
 Red. masses --     3.9705                 2.7776                13.9633
 Frc consts  --     4.8993                 3.8082                43.9070
 IR Inten    --    12.3586                15.7666               296.4983

                    22                     23                     24
                     A                      A                      A
 Frequencies --  3263.7679              3278.1382              3577.0688
 Red. masses --     1.0960                 1.1066                 1.0850
 Frc consts  --     6.8783                 7.0062                 8.1796
 IR Inten    --    18.2238                28.8845               226.9040

 - Thermochemistry -
 -------------------
 Temperature   298.150 Kelvin.  Pressure   1.00000 Atm.
 Atom     1 has atomic number  7 and mass  14.00307

 Molecular mass:    95.03577 amu.
 Principal axes and moments of inertia in atomic units:
                           1         2         3
     Eigenvalues --   197.65577 872.549251070.20498
           X            0.99985  -0.01745  -0.00001
           Y            0.01745   0.99985   0.00000
           Z            0.00001   0.00000   1.00000
 This molecule is an asymmetric top.
 Rotational symmetry number  1.
 Rotational temperatures (Kelvin)      0.43821     0.09927     0.08093
 Rotational constants (GHZ):           9.13073     2.06835     1.68635
 Zero-point vibrational energy     181727.0 (Joules/Mol)
                                   43.43380 (Kcal/Mol)
 Warning -- explicit consideration of   7 degrees of freedom as
           vibrations may cause significant error
 Vibrational temperatures:    236.15   267.47   706.62   765.42   787.71
          (Kelvin)            839.17   865.42   965.11  1174.50  1316.61
                             1331.85  1451.51  1525.02  1658.77  1805.21
                             1888.44  1904.81  2063.88  2082.15  2194.80
                             3323.85  4695.83  4716.50  5146.60

 Zero-point correction=                           0.069216 (Hartree/Particle)
 Thermal correction to Energy=                    0.074638
 Thermal correction to Enthalpy=                  0.075582
 Thermal correction to Gibbs Free Energy=         0.039984
 Sum of electronic and zero-point Energies=           -334.743212
 Sum of electronic and thermal Energies=              -334.737790
 Sum of electronic and thermal Enthalpies=            -334.736846
 Sum of electronic and thermal Free Energies=         -334.772444

                     E (Thermal)             CV                S
                      KCal/Mol        Cal/Mol-Kelvin    Cal/Mol-Kelvin
 Total                   46.836             19.482             74.923
 Electronic               0.000              0.000              0.000
 Translational            0.889              2.981             39.566
 Rotational               0.889              2.981             26.715
 Vibrational             45.059             13.520              8.642
 Vibration     1          0.623              1.886              2.502
 Vibration     2          0.632              1.859              2.268
 Vibration     3          0.847              1.270              0.681
 Vibration     4          0.887              1.179              0.583
 Vibration     5          0.903              1.145              0.549
 Vibration     6          0.940              1.068              0.479
 Vibration     7          0.960              1.029              0.447

 Optimization completed.
    -- Stationary point found.
 Normal termination of Gaussian 09 at Tue Mar  6 09:01:27 2018.
