 Gaussian 09, Revision B.01,
 Gaussian 09:  EM64L-G09RevB.01 12-Aug-2010

 -------------------------------------------------
 #p Temperature=298.15 opt freq UB3LYP/aug-cc-pVDZ
 -------------------------------------------------

 -----------------------------------------
 Pyrazole-3-N2+-UB3LYP-aug-cc-pVDZ-Triplet
 -----------------------------------------
 Symbolic Z-matrix:
 Charge =  1 Multiplicity = 3

 SCF Done:  E(UB3LYP) =  -334.668335150     A.U. after   22 cycles
 SCF Done:  E(UB3LYP) =  -334.708378197     A.U. after   20 cycles
 SCF Done:  E(UB3LYP) =  -334.719713678     A.U. after   22 cycles
 SCF Done:  E(UB3LYP) =  -334.721897665     A.U. after   19 cycles
 SCF Done:  E(UB3LYP) =  -334.722317282     A.U. after   18 cycles
 SCF Done:  E(UB3LYP) =  -334.722442004     A.U. after   19 cycles
 SCF Done:  E(UB3LYP) =  -334.722519898     A.U. after   18 cycles
 SCF Done:  E(UB3LYP) =  -334.722611643     A.U. after   19 cycles
 SCF Done:  E(UB3LYP) =  -334.722698997     A.U. after   19 cycles
 SCF Done:  E(UB3LYP) =  -334.722741117     A.U. after   18 cycles
 SCF Done:  E(UB3LYP) =  -334.730757959     A.U. after   20 cycles
 SCF Done:  E(UB3LYP) =  -334.731209802     A.U. after   20 cycles
 SCF Done:  E(UB3LYP) =  -334.730319851     A.U. after   18 cycles
 SCF Done:  E(UB3LYP) =  -334.731327136     A.U. after   18 cycles
 SCF Done:  E(UB3LYP) =  -334.731410869     A.U. after   21 cycles
 SCF Done:  E(UB3LYP) =  -334.731492224     A.U. after   17 cycles
 SCF Done:  E(UB3LYP) =  -334.731503386     A.U. after   17 cycles
 SCF Done:  E(UB3LYP) =  -334.731505923     A.U. after   16 cycles
 SCF Done:  E(UB3LYP) =  -334.731506297     A.U. after   15 cycles
 Optimization completed.
    -- Stationary point found.
 Normal termination of Gaussian 09 at Sat Feb 19 07:20:59 2005.

 ----------------------------------------------------------------------
 #P Geom=AllCheck Guess=TCheck SCRF=Check GenChk UB3LYP/Aug-CC-pVDZ Fre
 q
 ----------------------------------------------------------------------

 Pyrazole-3-N2+-UB3LYP-aug-cc-pVDZ-Triplet
 -----------------------------------------
 Redundant internal coordinates taken from checkpoint file:
 Pyrazole-3-N2+-UB3LYP-aug-cc-pVDZ-Triplet.chk
 Charge =  1 Multiplicity = 3

                         Standard orientation:
 ---------------------------------------------------------------------
 Center     Atomic      Atomic             Coordinates (Angstroms)
 Number     Number       Type             X           Y           Z
 ---------------------------------------------------------------------
      1          7           0        1.724146    0.389223   -0.252846
      2          7           0        2.550306   -0.311428    0.261444
      3          6           0        0.354449    0.224135   -0.073043
      4          6           0       -0.640420    1.212357    0.031413
      5          1           0       -0.503924    2.288740    0.056119
      6          7           0       -1.474897   -0.865822    0.001320
      7          1           0       -2.119128   -1.659351   -0.001914
      8          6           0       -1.818745    0.506746    0.085679
      9          1           0       -2.856971    0.820030    0.169934
     10          7           0       -0.212652   -1.084665   -0.079695
 ---------------------------------------------------------------------

 SCF Done:  E(UB3LYP) =  -334.731506297     A.U. after    1 cycles

 The electronic state is 3-A.
 Alpha  occ. eigenvalues --  -14.69468 -14.65661 -14.63627 -14.62659 -10.53774
 Alpha  occ. eigenvalues --  -10.50480 -10.44259  -1.34955  -1.29167  -1.08945
 Alpha  occ. eigenvalues --   -1.06739  -0.96254  -0.87332  -0.80777  -0.79778
 Alpha  occ. eigenvalues --   -0.73562  -0.69347  -0.68668  -0.67934  -0.64776
 Alpha  occ. eigenvalues --   -0.61635  -0.57333  -0.53558  -0.52291  -0.42639
 Alpha virt. eigenvalues --   -0.30027  -0.25097  -0.18841  -0.17467  -0.14060
 Alpha virt. eigenvalues --   -0.12936  -0.11322  -0.10746  -0.09259  -0.08441
 Alpha virt. eigenvalues --   -0.07016  -0.06075  -0.05457  -0.05037  -0.03936

  Beta  occ. eigenvalues --  -14.69219 -14.64992 -14.63297 -14.60705 -10.52932
  Beta  occ. eigenvalues --  -10.50059 -10.44449  -1.33717  -1.26913  -1.07180
  Beta  occ. eigenvalues --   -1.05552  -0.94213  -0.86800  -0.80030  -0.78578
  Beta  occ. eigenvalues --   -0.70158  -0.68720  -0.67917  -0.63660  -0.62228
  Beta  occ. eigenvalues --   -0.58700  -0.56203  -0.51915
  Beta virt. eigenvalues --   -0.42246  -0.27044  -0.26293  -0.22351  -0.17309
  Beta virt. eigenvalues --   -0.16585  -0.13814  -0.12636  -0.11227  -0.10549
  Beta virt. eigenvalues --   -0.09116  -0.08143  -0.06575  -0.05786  -0.05378

 Mulliken atomic charges:
              1
     1  N    0.093460
     2  N   -0.316439
     3  C    0.129351
     4  C    1.704962
     5  H   -0.436326
     6  N    0.105554
     7  H   -0.024674
     8  C    0.420861
     9  H   -0.434864
    10  N   -0.241884
 Sum of Mulliken atomic charges =   1.00000

 Dipole moment (field-independent basis, Debye):
    X=             -6.0765    Y=              0.6873    Z=              0.1265  Tot=              6.1166
 Quadrupole moment (field-independent basis, Debye-Ang):
   XX=            -19.9828   YY=            -29.3725   ZZ=            -37.6217
   XY=              3.1639   XZ=             -0.8034   YZ=              0.7635

  Exact polarizability:  95.484  -2.064  54.462  -0.319  -0.700  34.055
 Approx polarizability: 160.946  -5.863  89.545  -0.488  -3.172  53.297

                     1                      2                      3
                     A                      A                      A
 Frequencies --    79.9230               170.4201               294.5495
 Red. masses --    10.1449                 6.7181                 7.6512
 Frc consts  --     0.0382                 0.1150                 0.3911
 IR Inten    --     4.8397                 2.7097                 4.7991

                     4                      5                      6
                     A                      A                      A
 Frequencies --   470.3154               539.6102               596.2737
 Red. masses --     6.3812                 3.3078                 7.2876
 Frc consts  --     0.8316                 0.5675                 1.5266
 IR Inten    --     2.2572                 0.8440                36.3215

                     7                      8                      9
                     A                      A                      A
 Frequencies --   676.8493               760.6803               783.9032
 Red. masses --     3.4638                 1.4044                 6.7551
 Frc consts  --     0.9350                 0.4788                 2.4457
 IR Inten    --    20.6629                42.3652                54.4349

                    10                     11                     12
                     A                      A                      A
 Frequencies --   812.4312               912.3717               916.8858
 Red. masses --     1.4361                 1.7965                 2.4676
 Frc consts  --     0.5585                 0.8811                 1.2223
 IR Inten    --    71.6068                 7.2626                 6.3181

                    13                     14                     15
                     A                      A                      A
 Frequencies --   995.2866              1063.2244              1160.4522
 Red. masses --     3.8292                 1.2189                 3.9024
 Frc consts  --     2.2349                 0.8118                 3.0963
 IR Inten    --     1.9893                27.1467                46.5375

                    16                     17                     18
                     A                      A                      A
 Frequencies --  1262.1613              1374.4863              1408.6927
 Red. masses --     2.1168                 3.1809                 2.8788
 Frc consts  --     1.9868                 3.5406                 3.3659
 IR Inten    --     4.9522               132.9635               197.9639

                    19                     20                     21
                     A                      A                      A
 Frequencies --  1453.4569              1547.9100              1728.1464
 Red. masses --     3.0976                 2.8358                13.6897
 Frc consts  --     3.8554                 4.0033                24.0883
 IR Inten    --    82.7986                67.1637                74.2603

                    22                     23                     24
                     A                      A                      A
 Frequencies --  3255.9893              3279.1093              3509.9635
 Red. masses --     1.0983                 1.1073                 1.0831
 Frc consts  --     6.8601                 7.0152                 7.8618
 IR Inten    --    25.0463                47.9065               237.4261

 - Thermochemistry -
 -------------------
 Temperature   298.150 Kelvin.  Pressure   1.00000 Atm.
 Atom     1 has atomic number  7 and mass  14.00307

 Molecular mass:    95.03577 amu.
 Principal axes and moments of inertia in atomic units:
                           1         2         3
     Eigenvalues --   223.61814 802.607371010.98015
           X            1.00000  -0.00040  -0.00236
           Y            0.00041   0.99999   0.00467
           Z            0.00235  -0.00467   0.99999
 This molecule is an asymmetric top.
 Rotational symmetry number  1.
 Rotational temperatures (Kelvin)      0.38733     0.10792     0.08567
 Rotational constants (GHZ):           8.07064     2.24860     1.78514
 Zero-point vibrational energy     173776.1 (Joules/Mol)
                                   41.53348 (Kcal/Mol)
 Warning -- explicit consideration of   6 degrees of freedom as
           vibrations may cause significant error
 Vibrational temperatures:    114.99   245.20   423.79   676.68   776.38
          (Kelvin)            857.90   973.83  1094.45  1127.86  1168.91
                             1312.70  1319.19  1431.99  1529.74  1669.63
                             1815.97  1977.58  2026.79  2091.20  2227.09
                             2486.41  4684.64  4717.90  5050.05

 Zero-point correction=                           0.066188 (Hartree/Particle)
 Thermal correction to Energy=                    0.072035
 Thermal correction to Enthalpy=                  0.072979
 Thermal correction to Gibbs Free Energy=         0.035182
 Sum of electronic and zero-point Energies=           -334.665318
 Sum of electronic and thermal Energies=              -334.659472
 Sum of electronic and thermal Enthalpies=            -334.658528
 Sum of electronic and thermal Free Energies=         -334.696324

                     E (Thermal)             CV                S
                      KCal/Mol        Cal/Mol-Kelvin    Cal/Mol-Kelvin
 Total                   45.202             20.364             79.550
 Electronic               0.000              0.000              2.183
 Translational            0.889              2.981             39.566
 Rotational               0.889              2.981             26.698
 Vibrational             43.425             14.402             11.103
 Vibration     1          0.600              1.963              3.893
 Vibration     2          0.626              1.879              2.431
 Vibration     3          0.689              1.684              1.448
 Vibration     4          0.827              1.316              0.737
 Vibration     5          0.895              1.162              0.566
 Vibration     6          0.954              1.040              0.456

 Optimization completed.
    -- Stationary point found.
 Normal termination of Gaussian 09 at Sat Feb 19 07:24:38 2005.
