 Gaussian 09, Revision B.01,
 Gaussian 09:  EM64L-G09RevB.01 12-Aug-2010

 -------------------------------------------------
 #p Temperature=298.15 opt freq UB3LYP/aug-cc-pVDZ
 -------------------------------------------------

 --------------------------------------
 Pyrazine-2+-UB3LYP-aug-cc-pVDZ-Singlet
 --------------------------------------
 Symbolic Z-matrix:
 Charge =  1 Multiplicity = 1

 SCF Done:  E(UB3LYP) =  -263.312191855     A.U. after   15 cycles
 SCF Done:  E(UB3LYP) =  -263.359518353     A.U. after   14 cycles
 SCF Done:  E(UB3LYP) =  -263.371990244     A.U. after   13 cycles
 SCF Done:  E(UB3LYP) =  -263.373838002     A.U. after   14 cycles
 SCF Done:  E(UB3LYP) =  -263.374046448     A.U. after   12 cycles
 SCF Done:  E(UB3LYP) =  -263.374047485     A.U. after   15 cycles
 SCF Done:  E(UB3LYP) =  -263.374078022     A.U. after   11 cycles
 Optimization completed.
    -- Stationary point found.
 Normal termination of Gaussian 09 at Tue Mar  6 08:19:06 2018.

 ----------------------------------------------------------------------
 #P Geom=AllCheck Guess=TCheck SCRF=Check GenChk UB3LYP/Aug-CC-pVDZ Fre
 q
 ----------------------------------------------------------------------

 Pyrazine-2+-UB3LYP-aug-cc-pVDZ-Singlet
 --------------------------------------
 Redundant internal coordinates taken from checkpoint file:
 Pyrazine-2+-UB3LYP-aug-cc-pVDZ-Singlet.chk
 Charge =  1 Multiplicity = 1

                         Standard orientation:
 ---------------------------------------------------------------------
 Center     Atomic      Atomic             Coordinates (Angstroms)
 Number     Number       Type             X           Y           Z
 ---------------------------------------------------------------------
      1          6           0        0.500993   -1.145027    0.000098
      2          6           0        1.473766   -0.148870   -0.000099
      3          1           0        2.557310   -0.226981    0.000562
      4          6           0       -0.528948    1.132861    0.000240
      5          1           0       -0.934436    2.147356   -0.000023
      6          6           0       -1.397256    0.014821    0.000062
      7          1           0       -2.485270    0.042826   -0.000474
      8          7           0       -0.708676   -1.146483   -0.000067
      9          7           0        0.790257    0.991353   -0.000200
 ---------------------------------------------------------------------

 SCF Done:  E(UB3LYP) =  -263.374078022     A.U. after    1 cycles

 The electronic state is 1-A.
 Alpha  occ. eigenvalues --  -14.64554 -14.62532 -10.53411 -10.51853 -10.50692
 Alpha  occ. eigenvalues --  -10.48477  -1.28088  -1.18882  -1.04533  -0.94180
 Alpha  occ. eigenvalues --   -0.89045  -0.79128  -0.77282  -0.73069  -0.70174
 Alpha  occ. eigenvalues --   -0.67524  -0.60063  -0.59613  -0.53196  -0.52725
 Alpha virt. eigenvalues --   -0.35591  -0.30560  -0.26906  -0.15342  -0.12838
 Alpha virt. eigenvalues --   -0.12280  -0.11918  -0.11072  -0.10243  -0.09447
 Alpha virt. eigenvalues --   -0.08235  -0.06462  -0.05533  -0.05280  -0.04762

  Beta  occ. eigenvalues --  -14.64554 -14.62532 -10.53411 -10.51853 -10.50692
  Beta  occ. eigenvalues --  -10.48477  -1.28088  -1.18882  -1.04533  -0.94180
  Beta  occ. eigenvalues --   -0.89045  -0.79128  -0.77282  -0.73069  -0.70174
  Beta  occ. eigenvalues --   -0.67524  -0.60063  -0.59613  -0.53196  -0.52725
  Beta virt. eigenvalues --   -0.35591  -0.30560  -0.26906  -0.15342  -0.12838
  Beta virt. eigenvalues --   -0.12280  -0.11918  -0.11072  -0.10243  -0.09447
  Beta virt. eigenvalues --   -0.08235  -0.06462  -0.05533  -0.05280  -0.04762

 Mulliken atomic charges:
              1
     1  C   -0.137244
     2  C    0.852510
     3  H   -0.255024
     4  C    0.608799
     5  H   -0.409702
     6  C    0.879905
     7  H   -0.363244
     8  N   -0.005228
     9  N   -0.170772
 Sum of Mulliken atomic charges =   1.00000

 Dipole moment (field-independent basis, Debye):
    X=             -0.3243    Y=             -0.0816    Z=              0.0003  Tot=              0.3344
 Quadrupole moment (field-independent basis, Debye-Ang):
   XX=            -16.9517   YY=            -26.0570   ZZ=            -32.2478
   XY=             -4.5901   XZ=              0.0028   YZ=              0.0000

  Exact polarizability:  65.526  -1.965  60.348  -0.001  -0.001  28.860
 Approx polarizability: 131.706   1.464 149.829  -0.007  -0.006  43.257

                     1                      2                      3
                     A                      A                      A
 Frequencies --   411.1989               513.8617               551.8828
 Red. masses --     2.6841                12.0094                11.4406
 Frc consts  --     0.2674                 1.8684                 2.0530
 IR Inten    --     8.7121                 6.0787                26.6024

                     4                      5                      6
                     A                      A                      A
 Frequencies --   619.8732               622.6458               827.2888
 Red. masses --     3.6972                 8.8519                 7.2024
 Frc consts  --     0.8370                 2.0220                 2.9043
 IR Inten    --    11.4864                14.2361               105.8126

                     7                      8                      9
                     A                      A                      A
 Frequencies --   847.5176               898.9000               956.2684
 Red. masses --     1.3558                 1.2450                 3.9575
 Frc consts  --     0.5738                 0.5927                 2.1322
 IR Inten    --    44.6814                 2.9921                38.8107

                    10                     11                     12
                     A                      A                      A
 Frequencies --   958.9508              1060.6805              1158.5013
 Red. masses --     1.4283                 3.3778                 1.6786
 Frc consts  --     0.7738                 2.2390                 1.3273
 IR Inten    --     0.0238                 2.4606                 7.9805

                    13                     14                     15
                     A                      A                      A
 Frequencies --  1247.8793              1275.8390              1333.4594
 Red. masses --     1.5121                 1.7172                 3.1297
 Frc consts  --     1.3873                 1.6468                 3.2788
 IR Inten    --    25.7411                11.7988                21.1399

                    16                     17                     18
                     A                      A                      A
 Frequencies --  1404.8290              1471.8341              1966.3361
 Red. masses --     2.5803                 4.2512                11.1935
 Frc consts  --     3.0004                 5.4260                25.4994
 IR Inten    --    71.8853                 2.2106                51.0957

                    19                     20                     21
                     A                      A                      A
 Frequencies --  3194.4934              3250.8653              3269.0730
 Red. masses --     1.0928                 1.0998                 1.1045
 Frc consts  --     6.5705                 6.8480                 6.9543
 IR Inten    --    39.3695                24.2561                35.5359

 - Thermochemistry -
 -------------------
 Temperature   298.150 Kelvin.  Pressure   1.00000 Atm.
 Atom     1 has atomic number  6 and mass  12.00000

 Molecular mass:    79.02962 amu.
 Principal axes and moments of inertia in atomic units:
                           1         2         3
     Eigenvalues --   242.14441 306.18673 548.33113
           X            0.98834  -0.15224   0.00003
           Y            0.15224   0.98834   0.00000
           Z           -0.00003   0.00001   1.00000
 This molecule is an asymmetric top.
 Rotational symmetry number  1.
 Rotational temperatures (Kelvin)      0.35769     0.28288     0.15796
 Rotational constants (GHZ):           7.45316     5.89425     3.29133
 Zero-point vibrational energy     166533.2 (Joules/Mol)
                                   39.80239 (Kcal/Mol)
 Warning -- explicit consideration of   4 degrees of freedom as
           vibrations may cause significant error
 Vibrational temperatures:    591.62   739.33   794.04   891.86   895.85
          (Kelvin)           1190.28  1219.39  1293.31  1375.86  1379.71
                             1526.08  1666.82  1795.42  1835.65  1918.55
                             2021.23  2117.64  2829.12  4596.16  4677.26
                             4703.46

 Zero-point correction=                           0.063429 (Hartree/Particle)
 Thermal correction to Energy=                    0.067636
 Thermal correction to Enthalpy=                  0.068580
 Thermal correction to Gibbs Free Energy=         0.036220
 Sum of electronic and zero-point Energies=           -263.310649
 Sum of electronic and thermal Energies=              -263.306442
 Sum of electronic and thermal Enthalpies=            -263.305498
 Sum of electronic and thermal Free Energies=         -263.337858

                     E (Thermal)             CV                S
                      KCal/Mol        Cal/Mol-Kelvin    Cal/Mol-Kelvin
 Total                   42.442             15.490             68.107
 Electronic               0.000              0.000              0.000
 Translational            0.889              2.981             39.017
 Rotational               0.889              2.981             25.211
 Vibrational             40.665              9.529              3.879
 Vibration     1          0.775              1.446              0.922
 Vibration     2          0.869              1.219              0.624
 Vibration     3          0.907              1.136              0.540
 Vibration     4          0.980              0.990              0.417

 Optimization completed.
    -- Stationary point found.
 Normal termination of Gaussian 09 at Tue Mar  6 08:20:57 2018.
