 Gaussian 09, Revision B.01,
 Gaussian 09:  EM64L-G09RevB.01 12-Aug-2010

 -------------------------------------------------
 #p Temperature=298.15 opt freq UB3LYP/aug-cc-pVDZ
 -------------------------------------------------

 --------------------------------------
 Pyrazine-2+-UB3LYP-aug-cc-pVDZ-Triplet
 --------------------------------------
 Symbolic Z-matrix:
 Charge =  1 Multiplicity = 3

 SCF Done:  E(UB3LYP) =  -263.273677267     A.U. after   23 cycles
 SCF Done:  E(UB3LYP) =  -263.300228537     A.U. after   20 cycles
 SCF Done:  E(UB3LYP) =  -263.304712913     A.U. after   18 cycles
 SCF Done:  E(UB3LYP) =  -263.306694940     A.U. after   19 cycles
 SCF Done:  E(UB3LYP) =  -263.307337814     A.U. after   19 cycles
 SCF Done:  E(UB3LYP) =  -263.307541896     A.U. after   17 cycles
 SCF Done:  E(UB3LYP) =  -263.307591640     A.U. after   15 cycles
 SCF Done:  E(UB3LYP) =  -263.307597393     A.U. after   15 cycles
 Optimization completed.
    -- Stationary point found.
 Normal termination of Gaussian 09 at Fri Jan 21 05:50:36 2005.

 ----------------------------------------------------------------------
 #P Geom=AllCheck Guess=TCheck SCRF=Check GenChk UB3LYP/Aug-CC-pVDZ Fre
 q
 ----------------------------------------------------------------------

 Pyrazine-2+-UB3LYP-aug-cc-pVDZ-Triplet
 --------------------------------------
 Redundant internal coordinates taken from checkpoint file:
 Pyrazine-2+-UB3LYP-aug-cc-pVDZ-Triplet.chk
 Charge =  1 Multiplicity = 3

                         Standard orientation:
 ---------------------------------------------------------------------
 Center     Atomic      Atomic             Coordinates (Angstroms)
 Number     Number       Type             X           Y           Z
 ---------------------------------------------------------------------
      1          6           0       -0.385506   -1.327285   -0.119674
      2          6           0       -1.356252   -0.279793    0.021009
      3          1           0       -2.388755   -0.495886    0.315106
      4          6           0        0.358170    1.252013   -0.001985
      5          1           0        0.694518    2.272861   -0.199051
      6          6           0        1.312394    0.158682    0.071113
      7          1           0        2.383077    0.360730   -0.029767
      8          7           0        0.880517   -1.095437    0.030488
      9          7           0       -0.917899    0.958380   -0.017497
 ---------------------------------------------------------------------

 SCF Done:  E(UB3LYP) =  -263.307597393     A.U. after    1 cycles

 The electronic state is 3-A.
 Alpha  occ. eigenvalues --  -14.63656 -14.62115 -10.51928 -10.51921 -10.51884
 Alpha  occ. eigenvalues --  -10.51278  -1.26845  -1.19369  -1.04820  -0.93430
 Alpha  occ. eigenvalues --   -0.91291  -0.79434  -0.78133  -0.72779  -0.70340
 Alpha  occ. eigenvalues --   -0.67728  -0.60514  -0.59272  -0.57481  -0.53269
 Alpha  occ. eigenvalues --   -0.47325
 Alpha virt. eigenvalues --   -0.31166  -0.29974  -0.16181  -0.14850  -0.13097
 Alpha virt. eigenvalues --   -0.12134  -0.11405  -0.10504  -0.09203  -0.08279
 Alpha virt. eigenvalues --   -0.06957  -0.05680  -0.05104  -0.04206  -0.03335

  Beta  occ. eigenvalues --  -14.62996 -14.61737 -10.51501 -10.51392 -10.51050
  Beta  occ. eigenvalues --  -10.50061  -1.25560  -1.18183  -1.02770  -0.91869
  Beta  occ. eigenvalues --   -0.88776  -0.77800  -0.76653  -0.71582  -0.68935
  Beta  occ. eigenvalues --   -0.65954  -0.59530  -0.54980  -0.53234
  Beta virt. eigenvalues --   -0.43572  -0.32638  -0.29266  -0.26642  -0.15766
  Beta virt. eigenvalues --   -0.13606  -0.12270  -0.11767  -0.11127  -0.10277
  Beta virt. eigenvalues --   -0.08784  -0.07849  -0.06703  -0.05427  -0.04693

 Mulliken atomic charges:
              1
     1  C    0.008152
     2  C    0.674822
     3  H   -0.219358
     4  C    0.702324
     5  H   -0.373711
     6  C    0.756125
     7  H   -0.355061
     8  N   -0.130969
     9  N   -0.062325
 Sum of Mulliken atomic charges =   1.00000

 Dipole moment (field-independent basis, Debye):
    X=              0.1729    Y=              1.5868    Z=              0.1649  Tot=              1.6047
 Quadrupole moment (field-independent basis, Debye-Ang):
   XX=            -19.3345   YY=            -26.6074   ZZ=            -31.5526
   XY=              5.9267   XZ=             -0.9465   YZ=             -0.6929

  Exact polarizability:  69.331  -0.168  63.635   0.166   0.207  29.853
 Approx polarizability: 132.592  -5.099 123.072   1.422   0.970  45.400

                     1                      2                      3
                     A                      A                      A
 Frequencies --   298.8951               392.4717               522.9571
 Red. masses --     2.3970                 5.7394                 5.1841
 Frc consts  --     0.1262                 0.5209                 0.8353
 IR Inten    --     7.6415                26.6350                 4.4166

                     4                      5                      6
                     A                      A                      A
 Frequencies --   560.5065               722.6809               799.6533
 Red. masses --     5.4913                 5.8125                 1.8234
 Frc consts  --     1.0165                 1.7886                 0.6870
 IR Inten    --    34.4523                 5.0562                62.6110

                     7                      8                      9
                     A                      A                      A
 Frequencies --   837.2451               926.3495               957.6690
 Red. masses --     3.2665                 1.6325                 1.6037
 Frc consts  --     1.3491                 0.8254                 0.8666
 IR Inten    --   156.4232                 8.9261                13.1205

                    10                     11                     12
                     A                      A                      A
 Frequencies --  1000.6457              1016.9752              1167.1898
 Red. masses --     2.7172                 3.1225                 1.7058
 Frc consts  --     1.6030                 1.9027                 1.3692
 IR Inten    --    13.4697                15.4899                16.5453

                    13                     14                     15
                     A                      A                      A
 Frequencies --  1255.1843              1269.7604              1358.8224
 Red. masses --     1.4534                 2.1631                 2.4979
 Frc consts  --     1.3491                 2.0548                 2.7174
 IR Inten    --     6.9808                15.7772                40.6213

                    16                     17                     18
                     A                      A                      A
 Frequencies --  1450.6580              1485.6151              1574.4423
 Red. masses --     2.6428                 5.2013                10.4295
 Frc consts  --     3.2768                 6.7635                15.2323
 IR Inten    --     6.4546                22.6330                 5.9599

                    19                     20                     21
                     A                      A                      A
 Frequencies --  3159.2713              3173.6769              3194.5545
 Red. masses --     1.0903                 1.0910                 1.0964
 Frc consts  --     6.4116                 6.4743                 6.5925
 IR Inten    --    67.0624                26.8066                24.5345

 - Thermochemistry -
 -------------------
 Temperature   298.150 Kelvin.  Pressure   1.00000 Atm.
 Atom     1 has atomic number  6 and mass  12.00000

 Molecular mass:    79.02962 amu.
 Principal axes and moments of inertia in atomic units:
                           1         2         3
     Eigenvalues --   266.81734 296.81983 560.93027
           X            0.86920   0.49431  -0.01227
           Y           -0.49442   0.86918  -0.00864
           Z            0.00639   0.01357   0.99989
 This molecule is an asymmetric top.
 Rotational symmetry number  1.
 Rotational temperatures (Kelvin)      0.32462     0.29181     0.15441
 Rotational constants (GHZ):           6.76396     6.08026     3.21741
 Zero-point vibrational energy     162244.9 (Joules/Mol)
                                   38.77745 (Kcal/Mol)
 Warning -- explicit consideration of   4 degrees of freedom as
           vibrations may cause significant error
 Vibrational temperatures:    430.04   564.68   752.42   806.44  1039.78
          (Kelvin)           1150.52  1204.61  1332.81  1377.87  1439.70
                             1463.20  1679.32  1805.93  1826.90  1955.04
                             2087.17  2137.47  2265.27  4545.48  4566.21
                             4596.25

 Zero-point correction=                           0.061796 (Hartree/Particle)
 Thermal correction to Energy=                    0.066240
 Thermal correction to Enthalpy=                  0.067185
 Thermal correction to Gibbs Free Energy=         0.033312
 Sum of electronic and zero-point Energies=           -263.245802
 Sum of electronic and thermal Energies=              -263.241357
 Sum of electronic and thermal Enthalpies=            -263.240413
 Sum of electronic and thermal Free Energies=         -263.274286

                     E (Thermal)             CV                S
                      KCal/Mol        Cal/Mol-Kelvin    Cal/Mol-Kelvin
 Total                   41.566             16.005             71.291
 Electronic               0.000              0.000              2.183
 Translational            0.889              2.981             39.017
 Rotational               0.889              2.981             25.300
 Vibrational             39.789             10.043              4.792
 Vibration     1          0.692              1.676              1.423
 Vibration     2          0.760              1.486              0.991
 Vibration     3          0.878              1.199              0.603
 Vibration     4          0.916              1.117              0.523

 Optimization completed.
    -- Stationary point found.
 Normal termination of Gaussian 09 at Fri Jan 21 05:52:32 2005.
