 Gaussian 09, Revision B.01,
 Gaussian 09:  EM64L-G09RevB.01 12-Aug-2010

 -------------------------------------------------
 #p Temperature=298.15 opt freq UB3LYP/aug-cc-pVDZ
 -------------------------------------------------

 --------------------------------------
 Pyrazole-4+-UB3LYP-aug-cc-pVDZ-Triplet
 --------------------------------------
 Symbolic Z-matrix:
 Charge =  1 Multiplicity = 3

 SCF Done:  E(UB3LYP) =  -225.172721659     A.U. after   18 cycles
 SCF Done:  E(UB3LYP) =  -225.190638819     A.U. after   19 cycles
 SCF Done:  E(UB3LYP) =  -225.193664349     A.U. after   18 cycles
 SCF Done:  E(UB3LYP) =  -225.194116587     A.U. after   16 cycles
 SCF Done:  E(UB3LYP) =  -225.194251576     A.U. after   18 cycles
 SCF Done:  E(UB3LYP) =  -225.194409282     A.U. after   18 cycles
 SCF Done:  E(UB3LYP) =  -225.194439955     A.U. after   17 cycles
 SCF Done:  E(UB3LYP) =  -225.194448872     A.U. after   17 cycles
 SCF Done:  E(UB3LYP) =  -225.194454121     A.U. after   17 cycles
 Optimization completed.
    -- Stationary point found.
 Normal termination of Gaussian 09 at Fri Jan 21 07:06:26 2005.

 ----------------------------------------------------------------------
 #P Geom=AllCheck Guess=TCheck SCRF=Check GenChk UB3LYP/Aug-CC-pVDZ Fre
 q
 ----------------------------------------------------------------------

 Pyrazole-4+-UB3LYP-aug-cc-pVDZ-Triplet
 --------------------------------------
 Redundant internal coordinates taken from checkpoint file:
 Pyrazole-4+-UB3LYP-aug-cc-pVDZ-Triplet.chk
 Charge =  1 Multiplicity = 3

                         Standard orientation:
 ---------------------------------------------------------------------
 Center     Atomic      Atomic             Coordinates (Angstroms)
 Number     Number       Type             X           Y           Z
 ---------------------------------------------------------------------
      1          6           0        0.209055    1.228355   -0.000083
      2          6           0        1.219710    0.217489    0.000050
      3          1           0        2.302210    0.316136    0.000087
      4          7           0       -0.768019   -0.714979   -0.000001
      5          1           0       -1.383482   -1.528803   -0.000074
      6          6           0       -1.080304    0.549461    0.000052
      7          1           0       -2.092772    0.949426    0.000057
      8          7           0        0.637058   -0.957676   -0.000026
 ---------------------------------------------------------------------

 SCF Done:  E(UB3LYP) =  -225.194454121     A.U. after    1 cycles

 The electronic state is 3-A.
 Alpha  occ. eigenvalues --  -14.68818 -14.63935 -10.53051 -10.52473 -10.47761
 Alpha  occ. eigenvalues --   -1.32005  -1.11749  -1.05153  -0.87453  -0.86113
 Alpha  occ. eigenvalues --   -0.81298  -0.71856  -0.70539  -0.68223  -0.59575
 Alpha  occ. eigenvalues --   -0.55532  -0.53972  -0.53370
 Alpha virt. eigenvalues --   -0.27305  -0.21837  -0.17534  -0.14611  -0.12919
 Alpha virt. eigenvalues --   -0.12287  -0.11157  -0.10877  -0.09954  -0.07339
 Alpha virt. eigenvalues --   -0.06163  -0.04840  -0.04369  -0.03522  -0.03084

  Beta  occ. eigenvalues --  -14.68541 -14.63221 -10.52745 -10.49966 -10.47889
  Beta  occ. eigenvalues --   -1.30627  -1.10894  -1.01625  -0.86121  -0.84508
  Beta  occ. eigenvalues --   -0.79979  -0.69866  -0.68840  -0.67156  -0.55316
  Beta  occ. eigenvalues --   -0.53943
  Beta virt. eigenvalues --   -0.41913  -0.36282  -0.23945  -0.17593  -0.17357
  Beta virt. eigenvalues --   -0.14140  -0.12594  -0.11808  -0.10723  -0.10663
  Beta virt. eigenvalues --   -0.09172  -0.06817  -0.06096  -0.04331  -0.04103

 Mulliken atomic charges:
              1
     1  C    0.011959
     2  C    0.759714
     3  H   -0.241701
     4  N    0.063910
     5  H   -0.000271
     6  C    0.853604
     7  H   -0.260840
     8  N   -0.186375
 Sum of Mulliken atomic charges =   1.00000

 Dipole moment (field-independent basis, Debye):
    X=             -2.4655    Y=              0.9810    Z=              0.0000  Tot=              2.6535
 Quadrupole moment (field-independent basis, Debye-Ang):
   XX=            -13.0537   YY=            -21.7994   ZZ=            -27.0656
   XY=              2.9220   XZ=              0.0002   YZ=              0.0002

  Exact polarizability:  47.411  -0.014  46.275   0.000   0.000  24.699
 Approx polarizability:  70.407   0.016  89.978   0.000   0.000  36.619

                     1                      2                      3
                     A                      A                      A
 Frequencies --   490.5671               585.5075               736.4998
 Red. masses --     4.5158                 2.9098                 9.2500
 Frc consts  --     0.6403                 0.5877                 2.9562
 IR Inten    --     1.0202                34.5593                29.3996

                     4                      5                      6
                     A                      A                      A
 Frequencies --   739.4672               853.2983               896.6061
 Red. masses --     1.3188                 5.0269                 1.2323
 Frc consts  --     0.4249                 2.1565                 0.5837
 IR Inten    --    84.2609                 5.2427                24.8714

                     7                      8                      9
                     A                      A                      A
 Frequencies --   897.5649               915.2481              1037.7828
 Red. masses --     4.2337                 1.4176                 3.5475
 Frc consts  --     2.0095                 0.6997                 2.2511
 IR Inten    --     9.1064                 0.9584                10.5290

                    10                     11                     12
                     A                      A                      A
 Frequencies --  1107.8136              1210.5623              1272.5784
 Red. masses --     1.9829                 1.7064                 1.6081
 Frc consts  --     1.4338                 1.4733                 1.5344
 IR Inten    --    15.3315                 3.7791                19.5305

                    13                     14                     15
                     A                      A                      A
 Frequencies --  1373.7496              1470.2614              1564.7364
 Red. masses --     2.0913                 3.1742                 4.5147
 Frc consts  --     2.3254                 4.0427                 6.5127
 IR Inten    --    25.8425                14.6256                24.2133

                    16                     17                     18
                     A                      A                      A
 Frequencies --  3248.6178              3263.2917              3537.6768
 Red. masses --     1.1020                 1.1015                 1.0853
 Frc consts  --     6.8524                 6.9113                 8.0029
 IR Inten    --    63.0999                34.3326               212.4958

 - Thermochemistry -
 -------------------
 Temperature   298.150 Kelvin.  Pressure   1.00000 Atm.
 Atom     1 has atomic number  6 and mass  12.00000

 Molecular mass:    67.02962 amu.
 Principal axes and moments of inertia in atomic units:
                           1         2         3
     Eigenvalues --   162.85049 207.29133 370.14182
           X            0.99763   0.06878   0.00000
           Y           -0.06878   0.99763   0.00000
           Z            0.00000   0.00000   1.00000
 This molecule is an asymmetric top.
 Rotational symmetry number  1.
 Rotational temperatures (Kelvin)      0.53186     0.41784     0.23400
 Rotational constants (GHZ):          11.08220     8.70630     4.87581
 Zero-point vibrational energy     150740.4 (Joules/Mol)
                                   36.02782 (Kcal/Mol)
 Warning -- explicit consideration of   2 degrees of freedom as
           vibrations may cause significant error
 Vibrational temperatures:    705.82   842.41  1059.66  1063.93  1227.70
          (Kelvin)           1290.01  1291.39  1316.84  1493.14  1593.89
                             1741.73  1830.95  1976.52  2115.38  2251.30
                             4674.03  4695.14  5089.92

 Zero-point correction=                           0.057414 (Hartree/Particle)
 Thermal correction to Energy=                    0.061169
 Thermal correction to Enthalpy=                  0.062113
 Thermal correction to Gibbs Free Energy=         0.030152
 Sum of electronic and zero-point Energies=           -225.137040
 Sum of electronic and thermal Energies=              -225.133285
 Sum of electronic and thermal Enthalpies=            -225.132341
 Sum of electronic and thermal Free Energies=         -225.164302

                     E (Thermal)             CV                S
                      KCal/Mol        Cal/Mol-Kelvin    Cal/Mol-Kelvin
 Total                   38.384             13.096             67.269
 Electronic               0.000              0.000              2.183
 Translational            0.889              2.981             38.526
 Rotational               0.889              2.981             24.039
 Vibrational             36.607              7.134              2.521
 Vibration     1          0.846              1.271              0.682
 Vibration     2          0.943              1.063              0.475

 Optimization completed.
    -- Stationary point found.
 Normal termination of Gaussian 09 at Fri Jan 21 07:07:37 2005.
