 Gaussian 09, Revision B.01,
 Gaussian 09:  EM64L-G09RevB.01 12-Aug-2010

 -------------------------------------------------
 #p Temperature=298.15 opt freq UB3LYP/aug-cc-pVDZ
 -------------------------------------------------

 -----------------------------------------
 Pyrazole-4-N2+-UB3LYP-aug-cc-pVDZ-Triplet
 -----------------------------------------
 Symbolic Z-matrix:
 Charge =  1 Multiplicity = 3

 SCF Done:  E(UB3LYP) =  -334.685680965     A.U. after   22 cycles
 SCF Done:  E(UB3LYP) =  -334.708022589     A.U. after   18 cycles
 SCF Done:  E(UB3LYP) =  -334.711567368     A.U. after   18 cycles
 SCF Done:  E(UB3LYP) =  -334.711782158     A.U. after   20 cycles
 SCF Done:  E(UB3LYP) =  -334.712014993     A.U. after   19 cycles
 SCF Done:  E(UB3LYP) =  -334.712119218     A.U. after   16 cycles
 SCF Done:  E(UB3LYP) =  -334.712171029     A.U. after   24 cycles
 SCF Done:  E(UB3LYP) =  -334.712183067     A.U. after   16 cycles
 SCF Done:  E(UB3LYP) =  -334.712195626     A.U. after   18 cycles
 SCF Done:  E(UB3LYP) =  -334.712227995     A.U. after   19 cycles
 SCF Done:  E(UB3LYP) =  -334.736018979     A.U. after   20 cycles
 SCF Done:  E(UB3LYP) =  -334.736060652     A.U. after   17 cycles
 SCF Done:  E(UB3LYP) =  -334.736072363     A.U. after   15 cycles
 SCF Done:  E(UB3LYP) =  -334.736075763     A.U. after   16 cycles
 SCF Done:  E(UB3LYP) =  -334.736078353     A.U. after   21 cycles
 SCF Done:  E(UB3LYP) =  -334.736080060     A.U. after   14 cycles
 SCF Done:  E(UB3LYP) =  -334.736081638     A.U. after   14 cycles
 SCF Done:  E(UB3LYP) =  -334.736082128     A.U. after   21 cycles
 SCF Done:  E(UB3LYP) =  -334.736082152     A.U. after   13 cycles
 Optimization completed.
    -- Stationary point found.
 Normal termination of Gaussian 09 at Fri Jan 21 06:58:06 2005.

 ----------------------------------------------------------------------
 #P Geom=AllCheck Guess=TCheck SCRF=Check GenChk UB3LYP/Aug-CC-pVDZ Fre
 q
 ----------------------------------------------------------------------

 Pyrazole-4-N2+-UB3LYP-aug-cc-pVDZ-Triplet
 -----------------------------------------
 Redundant internal coordinates taken from checkpoint file:
 Pyrazole-4-N2+-UB3LYP-aug-cc-pVDZ-Triplet.chk
 Charge =  1 Multiplicity = 3

                         Standard orientation:
 ---------------------------------------------------------------------
 Center     Atomic      Atomic             Coordinates (Angstroms)
 Number     Number       Type             X           Y           Z
 ---------------------------------------------------------------------
      1          7           0        1.742241   -0.507511    0.000771
      2          7           0        2.571119    0.370808   -0.000791
      3          6           0        0.383778   -0.222328    0.000224
      4          6           0       -0.689437   -1.182206   -0.000147
      5          1           0       -0.614238   -2.267320   -0.000219
      6          7           0       -1.554857    0.807170   -0.000034
      7          1           0       -2.342908    1.454704   -0.000064
      8          6           0       -0.284338    1.086196    0.000252
      9          1           0        0.133163    2.091677    0.000534
     10          7           0       -1.849364   -0.580328   -0.000264
 ---------------------------------------------------------------------

 SCF Done:  E(UB3LYP) =  -334.736082152     A.U. after    1 cycles

 The electronic state is 3-A.
 Alpha  occ. eigenvalues --  -14.68366 -14.63984 -14.63137 -14.62559 -10.52795
 Alpha  occ. eigenvalues --  -10.52453 -10.46845  -1.31651  -1.29472  -1.11068
 Alpha  occ. eigenvalues --   -1.06713  -0.95254  -0.86079  -0.83069  -0.79817
 Alpha  occ. eigenvalues --   -0.72076  -0.71058  -0.69006  -0.67075  -0.65903
 Alpha  occ. eigenvalues --   -0.62008  -0.55008  -0.54705  -0.52263  -0.43651
 Alpha virt. eigenvalues --   -0.30506  -0.24673  -0.18133  -0.17438  -0.14328
 Alpha virt. eigenvalues --   -0.13566  -0.12138  -0.11185  -0.10834  -0.08619
 Alpha virt. eigenvalues --   -0.06546  -0.06381  -0.05220  -0.05130  -0.04516

  Beta  occ. eigenvalues --  -14.68227 -14.63803 -14.62082 -14.60930 -10.52223
  Beta  occ. eigenvalues --  -10.51682 -10.47035  -1.30738  -1.27152  -1.10585
  Beta  occ. eigenvalues --   -1.04028  -0.93428  -0.85713  -0.82135  -0.78727
  Beta  occ. eigenvalues --   -0.70068  -0.69538  -0.67692  -0.63791  -0.63422
  Beta  occ. eigenvalues --   -0.58036  -0.54046  -0.53450
  Beta virt. eigenvalues --   -0.42135  -0.27785  -0.27186  -0.22504  -0.17345
  Beta virt. eigenvalues --   -0.14947  -0.13974  -0.13296  -0.11817  -0.11103
  Beta virt. eigenvalues --   -0.10676  -0.08308  -0.06373  -0.06181  -0.04895

 Mulliken atomic charges:
              1
     1  N    0.126561
     2  N   -0.358545
     3  C    0.565630
     4  C    0.696546
     5  H   -0.375684
     6  N   -0.033211
     7  H   -0.005398
     8  C    1.109855
     9  H   -0.446195
    10  N   -0.279558
 Sum of Mulliken atomic charges =   1.00000

 Dipole moment (field-independent basis, Debye):
    X=             -2.6049    Y=              2.5787    Z=              0.0009  Tot=              3.6654
 Quadrupole moment (field-independent basis, Debye-Ang):
   XX=            -31.5786   YY=            -24.6729   ZZ=            -36.9170
   XY=             -5.4417   XZ=              0.0011   YZ=              0.0041

  Exact polarizability:  83.506   1.595  56.626   0.000  -0.002  32.196
 Approx polarizability: 141.373   6.962  91.157  -0.002  -0.010  49.316

                     1                      2                      3
                     A                      A                      A
 Frequencies --    48.7286               215.1811               223.1842
 Red. masses --    10.7377                 7.4383                 6.8659
 Frc consts  --     0.0150                 0.2029                 0.2015
 IR Inten    --     2.5424                 5.5345                 7.0713

                     4                      5                      6
                     A                      A                      A
 Frequencies --   483.5521               509.0004               609.4872
 Red. masses --     7.8907                 4.7958                 2.5366
 Frc consts  --     1.0871                 0.7321                 0.5552
 IR Inten    --     4.6857                 2.5011                32.0558

                     7                      8                      9
                     A                      A                      A
 Frequencies --   636.0305               766.8981               792.5689
 Red. masses --     9.1589                 1.3656                 8.7251
 Frc consts  --     2.1830                 0.4732                 3.2292
 IR Inten    --     5.2344                73.0462                33.4972

                    10                     11                     12
                     A                      A                      A
 Frequencies --   892.6683               907.0441               933.6003
 Red. masses --     3.3988                 1.2230                 1.4709
 Frc consts  --     1.5957                 0.5928                 0.7553
 IR Inten    --     2.0679                22.0640                 4.7774

                    13                     14                     15
                     A                      A                      A
 Frequencies --   955.0199              1134.9536              1165.2147
 Red. masses --     4.8269                 1.4778                 1.9212
 Frc consts  --     2.5938                 1.1215                 1.5369
 IR Inten    --    29.6158                16.5940                 7.7703

                    16                     17                     18
                     A                      A                      A
 Frequencies --  1255.7415              1332.6407              1401.0753
 Red. masses --     2.9580                 2.4215                 2.1420
 Frc consts  --     2.7482                 2.5338                 2.4774
 IR Inten    --     2.1124                56.0827                38.7045

                    19                     20                     21
                     A                      A                      A
 Frequencies --  1499.4840              1583.8979              1640.5476
 Red. masses --     4.0513                 4.7466                12.6445
 Frc consts  --     5.3669                 7.0160                20.0507
 IR Inten    --    16.3795                33.6763                46.4844

                    22                     23                     24
                     A                      A                      A
 Frequencies --  3245.1837              3252.2090              3542.9492
 Red. masses --     1.1023                 1.1019                 1.0854
 Frc consts  --     6.8397                 6.8667                 8.0276
 IR Inten    --    62.2118                24.1759               248.4613

 - Thermochemistry -
 -------------------
 Temperature   298.150 Kelvin.  Pressure   1.00000 Atm.
 Atom     1 has atomic number  7 and mass  14.00307

 Molecular mass:    95.03577 amu.
 Principal axes and moments of inertia in atomic units:
                           1         2         3
     Eigenvalues --   223.48267 825.373101048.85562
           X            0.99995  -0.01045   0.00000
           Y            0.01045   0.99995   0.00002
           Z            0.00000  -0.00002   1.00000
 This molecule is an asymmetric top.
 Rotational symmetry number  1.
 Rotational temperatures (Kelvin)      0.38756     0.10494     0.08258
 Rotational constants (GHZ):           8.07553     2.18658     1.72068
 Zero-point vibrational energy     173619.2 (Joules/Mol)
                                   41.49598 (Kcal/Mol)
 Warning -- explicit consideration of   6 degrees of freedom as
           vibrations may cause significant error
 Vibrational temperatures:     70.11   309.60   321.11   695.72   732.34
          (Kelvin)            876.92   915.10  1103.39  1140.33  1284.35
                             1305.03  1343.24  1374.06  1632.94  1676.48
                             1806.73  1917.37  2015.83  2157.42  2278.87
                             2360.38  4669.09  4679.20  5097.51

 Zero-point correction=                           0.066128 (Hartree/Particle)
 Thermal correction to Energy=                    0.072062
 Thermal correction to Enthalpy=                  0.073006
 Thermal correction to Gibbs Free Energy=         0.034692
 Sum of electronic and zero-point Energies=           -334.669954
 Sum of electronic and thermal Energies=              -334.664020
 Sum of electronic and thermal Enthalpies=            -334.663076
 Sum of electronic and thermal Free Energies=         -334.701390

                     E (Thermal)             CV                S
                      KCal/Mol        Cal/Mol-Kelvin    Cal/Mol-Kelvin
 Total                   45.220             20.369             80.639
 Electronic               0.000              0.000              2.183
 Translational            0.889              2.981             39.566
 Rotational               0.889              2.981             26.761
 Vibrational             43.442             14.408             12.129
 Vibration     1          0.595              1.978              4.868
 Vibration     2          0.645              1.818              1.999
 Vibration     3          0.649              1.806              1.933
 Vibration     4          0.840              1.287              0.701
 Vibration     5          0.864              1.230              0.636
 Vibration     6          0.968              1.012              0.434

 Optimization completed.
    -- Stationary point found.
 Normal termination of Gaussian 09 at Fri Jan 21 07:01:39 2005.
