 Gaussian 09, Revision B.01,
 Gaussian 09:  EM64L-G09RevB.01 12-Aug-2010

 -------------------------------------------------
 #p Temperature=298.15 opt freq UB3LYP/aug-cc-pVDZ
 -------------------------------------------------

 -----------------------------------------
 Pyrazole-4-N2+-UB3LYP-aug-cc-pVDZ-Singlet
 -----------------------------------------
 Symbolic Z-matrix:
 Charge =  1 Multiplicity = 1

 SCF Done:  E(UB3LYP) =  -334.802319632     A.U. after   15 cycles
 SCF Done:  E(UB3LYP) =  -334.827792789     A.U. after   13 cycles
 SCF Done:  E(UB3LYP) =  -334.830544794     A.U. after   12 cycles
 SCF Done:  E(UB3LYP) =  -334.828669747     A.U. after   15 cycles
 SCF Done:  E(UB3LYP) =  -334.830968572     A.U. after   15 cycles
 SCF Done:  E(UB3LYP) =  -334.831139759     A.U. after   11 cycles
 SCF Done:  E(UB3LYP) =  -334.831143383     A.U. after   17 cycles
 SCF Done:  E(UB3LYP) =  -334.831144226     A.U. after   17 cycles
 SCF Done:  E(UB3LYP) =  -334.831146300     A.U. after   17 cycles
 Optimization completed.
    -- Stationary point found.
 Normal termination of Gaussian 09 at Tue Mar  6 08:43:29 2018.

 ----------------------------------------------------------------------
 #P Geom=AllCheck Guess=TCheck SCRF=Check GenChk UB3LYP/Aug-CC-pVDZ Fre
 q
 ----------------------------------------------------------------------

 Pyrazole-4-N2+-UB3LYP-aug-cc-pVDZ-Singlet
 -----------------------------------------
 Redundant internal coordinates taken from checkpoint file:
 Pyrazole-4-N2+-UB3LYP-aug-cc-pVDZ-Singlet.chk
 Charge =  1 Multiplicity = 1

                         Standard orientation:
 ---------------------------------------------------------------------
 Center     Atomic      Atomic             Coordinates (Angstroms)
 Number     Number       Type             X           Y           Z
 ---------------------------------------------------------------------
      1          7           0        1.693162   -0.034805   -0.000144
      2          7           0        2.810018   -0.013308    0.000162
      3          6           0        0.344164   -0.004845   -0.000410
      4          6           0       -0.501867    1.158692    0.000279
      5          1           0       -0.220897    2.207779    0.000155
      6          7           0       -1.728247   -0.592763    0.000098
      7          1           0       -2.613022   -1.093784    0.000016
      8          6           0       -0.508505   -1.125303    0.000130
      9          1           0       -0.303874   -2.191732    0.000086
     10          7           0       -1.755642    0.770372   -0.000153
 ---------------------------------------------------------------------

 SCF Done:  E(UB3LYP) =  -334.831146300     A.U. after    1 cycles

 The electronic state is 1-A.
 Alpha  occ. eigenvalues --  -14.74258 -14.70092 -14.64100 -14.57710 -10.48925
 Alpha  occ. eigenvalues --  -10.47923 -10.44732  -1.39219  -1.28252  -1.10980
 Alpha  occ. eigenvalues --   -1.06147  -0.95985  -0.84380  -0.80326  -0.76095
 Alpha  occ. eigenvalues --   -0.74676  -0.72882  -0.70340  -0.67024  -0.66591
 Alpha  occ. eigenvalues --   -0.64203  -0.51192  -0.50603  -0.49291
 Alpha virt. eigenvalues --   -0.30079  -0.29850  -0.21045  -0.15961  -0.14424
 Alpha virt. eigenvalues --   -0.14336  -0.12300  -0.10667  -0.09996  -0.09802
 Alpha virt. eigenvalues --   -0.08770  -0.06039  -0.05883  -0.05123  -0.04884

  Beta  occ. eigenvalues --  -14.74258 -14.70092 -14.64100 -14.57710 -10.48925
  Beta  occ. eigenvalues --  -10.47923 -10.44732  -1.39219  -1.28252  -1.10980
  Beta  occ. eigenvalues --   -1.06147  -0.95985  -0.84380  -0.80326  -0.76095
  Beta  occ. eigenvalues --   -0.74676  -0.72882  -0.70340  -0.67024  -0.66591
  Beta  occ. eigenvalues --   -0.64203  -0.51192  -0.50603  -0.49291
  Beta virt. eigenvalues --   -0.30079  -0.29850  -0.21045  -0.15961  -0.14424
  Beta virt. eigenvalues --   -0.14336  -0.12300  -0.10667  -0.09996  -0.09802
  Beta virt. eigenvalues --   -0.08770  -0.06039  -0.05883  -0.05123  -0.04884

 Mulliken atomic charges:
              1
     1  N    0.508890
     2  N   -0.452135
     3  C    0.644081
     4  C    0.765812
     5  H   -0.472236
     6  N   -0.040861
     7  H   -0.029367
     8  C    0.894218
     9  H   -0.514415
    10  N   -0.303987
 Sum of Mulliken atomic charges =   1.00000

 Dipole moment (field-independent basis, Debye):
    X=              0.8567    Y=             -2.4173    Z=              0.0004  Tot=              2.5646
 Quadrupole moment (field-independent basis, Debye-Ang):
   XX=            -23.3578   YY=            -26.3574   ZZ=            -37.9721
   XY=              6.5216   XZ=             -0.0008   YZ=              0.0004

  Exact polarizability:  93.498   0.989  54.787   0.001   0.000  32.325
 Approx polarizability: 189.547   2.662  89.364   0.008   0.000  48.684

                     1                      2                      3
                     A                      A                      A
 Frequencies --   172.8349               188.7645               518.3184
 Red. masses --     8.3791                 6.9790                 9.9161
 Frc consts  --     0.1475                 0.1465                 1.5696
 IR Inten    --     0.1953                 2.7652                 0.0003

                     4                      5                      6
                     A                      A                      A
 Frequencies --   539.8578               577.8242               598.4070
 Red. masses --     8.3996                 9.1340                 3.2145
 Frc consts  --     1.4423                 1.7968                 0.6782
 IR Inten    --     0.7307                 4.4238                20.4636

                     7                      8                      9
                     A                      A                      A
 Frequencies --   648.0799               728.5518               857.1344
 Red. masses --     6.7634                 1.1529                 1.2719
 Frc consts  --     1.6737                 0.3605                 0.5505
 IR Inten    --     7.9674                96.0128                 1.5493

                    10                     11                     12
                     A                      A                      A
 Frequencies --   887.8119               920.2678               989.1300
 Red. masses --     1.4002                 6.3409                 3.0521
 Frc consts  --     0.6503                 3.1640                 1.7594
 IR Inten    --    21.7976                 8.2562                35.4295

                    13                     14                     15
                     A                      A                      A
 Frequencies --  1039.1682              1164.3831              1216.2725
 Red. masses --     3.3478                 1.5331                 1.5884
 Frc consts  --     2.1300                 1.2247                 1.3845
 IR Inten    --     4.5024                32.7879                39.1036

                    16                     17                     18
                     A                      A                      A
 Frequencies --  1348.0352              1355.9156              1449.7480
 Red. masses --     2.3141                 4.1327                 5.4836
 Frc consts  --     2.4776                 4.4767                 6.7905
 IR Inten    --    26.8191                41.0598                 3.8061

                    19                     20                     21
                     A                      A                      A
 Frequencies --  1498.8134              1557.2088              2331.7340
 Red. masses --     4.2411                 2.8679                13.9571
 Frc consts  --     5.6134                 4.0974                44.7100
 IR Inten    --   106.4813                41.9493               255.3292

                    22                     23                     24
                     A                      A                      A
 Frequencies --  3264.0515              3267.9430              3581.2097
 Red. masses --     1.1009                 1.1037                 1.0849
 Frc consts  --     6.9106                 6.9445                 8.1978
 IR Inten    --    35.6154                21.1604               259.3680

 - Thermochemistry -
 -------------------
 Temperature   298.150 Kelvin.  Pressure   1.00000 Atm.
 Atom     1 has atomic number  7 and mass  14.00307

 Molecular mass:    95.03577 amu.
 Principal axes and moments of inertia in atomic units:
                           1         2         3
     Eigenvalues --   198.03892 893.541811091.58070
           X            0.99988   0.01566   0.00000
           Y           -0.01566   0.99988   0.00000
           Z            0.00000   0.00000   1.00000
 This molecule is an asymmetric top.
 Rotational symmetry number  1.
 Rotational temperatures (Kelvin)      0.43736     0.09693     0.07935
 Rotational constants (GHZ):           9.11306     2.01976     1.65333
 Zero-point vibrational energy     183635.5 (Joules/Mol)
                                   43.88995 (Kcal/Mol)
 Warning -- explicit consideration of   6 degrees of freedom as
           vibrations may cause significant error
 Vibrational temperatures:    248.67   271.59   745.74   776.73   831.36
          (Kelvin)            860.97   932.44  1048.22  1233.22  1277.36
                             1324.06  1423.14  1495.13  1675.29  1749.94
                             1939.52  1950.86  2085.86  2156.46  2240.47
                             3354.84  4696.24  4701.84  5152.56

 Zero-point correction=                           0.069943 (Hartree/Particle)
 Thermal correction to Energy=                    0.075245
 Thermal correction to Enthalpy=                  0.076189
 Thermal correction to Gibbs Free Energy=         0.040780
 Sum of electronic and zero-point Energies=           -334.761203
 Sum of electronic and thermal Energies=              -334.755902
 Sum of electronic and thermal Enthalpies=            -334.754958
 Sum of electronic and thermal Free Energies=         -334.790367

                     E (Thermal)             CV                S
                      KCal/Mol        Cal/Mol-Kelvin    Cal/Mol-Kelvin
 Total                   47.217             19.064             74.525
 Electronic               0.000              0.000              0.000
 Translational            0.889              2.981             39.566
 Rotational               0.889              2.981             26.760
 Vibrational             45.439             13.103              8.199
 Vibration     1          0.626              1.876              2.404
 Vibration     2          0.633              1.855              2.240
 Vibration     3          0.873              1.209              0.614
 Vibration     4          0.895              1.162              0.566
 Vibration     5          0.934              1.079              0.489
 Vibration     6          0.956              1.035              0.452

 Optimization completed.
    -- Stationary point found.
 Normal termination of Gaussian 09 at Tue Mar  6 08:46:55 2018.
