 Gaussian 09, Revision B.01,
 Gaussian 09:  EM64L-G09RevB.01 12-Aug-2010

 -------------------------------------------------
 #p Temperature=298.15 opt freq UB3LYP/aug-cc-pVDZ
 -------------------------------------------------

 --------------------------------------
 Pyrazole-3+-UB3LYP-aug-cc-pVDZ-Singlet
 --------------------------------------
 Symbolic Z-matrix:
 Charge =  1 Multiplicity = 1

 SCF Done:  E(UB3LYP) =  -225.124037829     A.U. after   22 cycles
 SCF Done:  E(UB3LYP) =  -225.170897933     A.U. after   18 cycles
 SCF Done:  E(UB3LYP) =  -225.169211308     A.U. after   15 cycles
 SCF Done:  E(UB3LYP) =  -225.187657746     A.U. after   15 cycles
 SCF Done:  E(UB3LYP) =  -225.189693349     A.U. after   14 cycles
 SCF Done:  E(UB3LYP) =  -225.190404040     A.U. after   13 cycles
 SCF Done:  E(UB3LYP) =  -225.190760080     A.U. after   13 cycles
 SCF Done:  E(UB3LYP) =  -225.190796971     A.U. after   13 cycles
 SCF Done:  E(UB3LYP) =  -225.190806029     A.U. after   13 cycles
 SCF Done:  E(UB3LYP) =  -225.190812530     A.U. after   12 cycles
 SCF Done:  E(UB3LYP) =  -225.190821330     A.U. after   13 cycles
 SCF Done:  E(UB3LYP) =  -225.190826758     A.U. after   13 cycles
 SCF Done:  E(UB3LYP) =  -225.190827885     A.U. after   14 cycles
 Optimization completed.
    -- Stationary point found.
 Normal termination of Gaussian 09 at Tue Mar  6 08:34:36 2018.

 ----------------------------------------------------------------------
 #P Geom=AllCheck Guess=TCheck SCRF=Check GenChk UB3LYP/Aug-CC-pVDZ Fre
 q
 ----------------------------------------------------------------------

 Pyrazole-3+-UB3LYP-aug-cc-pVDZ-Singlet
 --------------------------------------
 Redundant internal coordinates taken from checkpoint file:
 Pyrazole-3+-UB3LYP-aug-cc-pVDZ-Singlet.chk
 Charge =  1 Multiplicity = 1

                         Standard orientation:
 ---------------------------------------------------------------------
 Center     Atomic      Atomic             Coordinates (Angstroms)
 Number     Number       Type             X           Y           Z
 ---------------------------------------------------------------------
      1          6           0        0.128846   -1.040064    0.000397
      2          6           0        1.269694   -0.287127   -0.000308
      3          1           0        2.337714   -0.466019    0.000353
      4          7           0       -0.819672    0.652157    0.000142
      5          1           0       -1.617362    1.285317   -0.000066
      6          6           0        0.522546    0.924449   -0.000099
      7          1           0        0.926207    1.936531    0.000473
      8          7           0       -1.062196   -0.700640   -0.000242
 ---------------------------------------------------------------------

 SCF Done:  E(UB3LYP) =  -225.190827885     A.U. after    1 cycles

 The electronic state is 1-A.
 Alpha  occ. eigenvalues --  -14.68367 -14.64400 -10.57424 -10.50553 -10.47885
 Alpha  occ. eigenvalues --   -1.34895  -1.10530  -1.07376  -0.88776  -0.82771
 Alpha  occ. eigenvalues --   -0.81437  -0.72186  -0.71540  -0.67936  -0.60656
 Alpha  occ. eigenvalues --   -0.54651  -0.52033
 Alpha virt. eigenvalues --   -0.40980  -0.25157  -0.19654  -0.16754  -0.13861
 Alpha virt. eigenvalues --   -0.12508  -0.11218  -0.10569  -0.09711  -0.09366
 Alpha virt. eigenvalues --   -0.06915  -0.05896  -0.05178  -0.05128  -0.03844

  Beta  occ. eigenvalues --  -14.68367 -14.64400 -10.57424 -10.50553 -10.47885
  Beta  occ. eigenvalues --   -1.34895  -1.10530  -1.07376  -0.88776  -0.82771
  Beta  occ. eigenvalues --   -0.81437  -0.72186  -0.71540  -0.67936  -0.60656
  Beta  occ. eigenvalues --   -0.54651  -0.52033
  Beta virt. eigenvalues --   -0.40980  -0.25157  -0.19654  -0.16754  -0.13861
  Beta virt. eigenvalues --   -0.12508  -0.11218  -0.10569  -0.09711  -0.09366
  Beta virt. eigenvalues --   -0.06915  -0.05896  -0.05178  -0.05128  -0.03844

 Mulliken atomic charges:
              1
     1  C    0.096132
     2  C    1.108199
     3  H   -0.368158
     4  N   -0.028734
     5  H   -0.029015
     6  C    0.679393
     7  H   -0.374118
     8  N   -0.083699
 Sum of Mulliken atomic charges =   1.00000

 Dipole moment (field-independent basis, Debye):
    X=              1.3923    Y=              1.2595    Z=              0.0013  Tot=              1.8774
 Quadrupole moment (field-independent basis, Debye-Ang):
   XX=            -17.0709   YY=            -15.9604   ZZ=            -28.2685
   XY=             -3.7720   XZ=              0.0014   YZ=              0.0000

  Exact polarizability:  48.012   0.380  43.307   0.001  -0.001  25.339
 Approx polarizability:  89.352   2.657  80.387   0.002  -0.003  36.268

                     1                      2                      3
                     A                      A                      A
 Frequencies --   179.1232               428.8099               625.1280
 Red. masses --     6.2338                 2.1203                 1.6154
 Frc consts  --     0.1178                 0.2297                 0.3719
 IR Inten    --    26.5251                22.6353                53.0883

                     4                      5                      6
                     A                      A                      A
 Frequencies --   662.7905               671.8008               807.8721
 Red. masses --     1.2774                10.9326                 6.3875
 Frc consts  --     0.3306                 2.9071                 2.4562
 IR Inten    --    82.4661                84.3662                18.8469

                     7                      8                      9
                     A                      A                      A
 Frequencies --   850.1624               985.4596              1058.5410
 Red. masses --     1.2724                 1.3011                 1.9911
 Frc consts  --     0.5418                 0.7445                 1.3145
 IR Inten    --     1.3523                19.1932                 2.4067

                    10                     11                     12
                     A                      A                      A
 Frequencies --  1192.5309              1222.0303              1237.6134
 Red. masses --     2.8721                 3.3675                 3.0818
 Frc consts  --     2.4066                 2.9629                 2.7812
 IR Inten    --    15.1562                34.2272                 7.9527

                    13                     14                     15
                     A                      A                      A
 Frequencies --  1366.4084              1471.4791              1776.9753
 Red. masses --     2.2502                 1.9966                 8.6984
 Frc consts  --     2.4753                 2.5472                16.1827
 IR Inten    --    59.4068                 9.1494                79.1923

                    16                     17                     18
                     A                      A                      A
 Frequencies --  3229.6931              3305.4988              3560.3427
 Red. masses --     1.0985                 1.1060                 1.0850
 Frc consts  --     6.7514                 7.1199                 8.1033
 IR Inten    --    45.8269               109.5156               250.0225

 - Thermochemistry -
 -------------------
 Temperature   298.150 Kelvin.  Pressure   1.00000 Atm.
 Atom     1 has atomic number  6 and mass  12.00000

 Molecular mass:    67.02962 amu.
 Principal axes and moments of inertia in atomic units:
                           1         2         3
     Eigenvalues --   151.73729 203.95476 355.69202
           X            0.99602  -0.08910   0.00002
           Y            0.08910   0.99602   0.00002
           Z           -0.00003  -0.00001   1.00000
 This molecule is an asymmetric top.
 Rotational symmetry number  1.
 Rotational temperatures (Kelvin)      0.57081     0.42467     0.24351
 Rotational constants (GHZ):          11.89385     8.84873     5.07389
 Zero-point vibrational energy     147333.6 (Joules/Mol)
                                   35.21358 (Kcal/Mol)
 Warning -- explicit consideration of   2 degrees of freedom as
           vibrations may cause significant error
 Vibrational temperatures:    257.72   616.96   899.42   953.61   966.57
          (Kelvin)           1162.35  1223.19  1417.85  1523.00  1715.78
                             1758.23  1780.65  1965.95  2117.13  2556.67
                             4646.80  4755.87  5122.53

 Zero-point correction=                           0.056116 (Hartree/Particle)
 Thermal correction to Energy=                    0.060497
 Thermal correction to Enthalpy=                  0.061442
 Thermal correction to Gibbs Free Energy=         0.029399
 Sum of electronic and zero-point Energies=           -225.134711
 Sum of electronic and thermal Energies=              -225.130330
 Sum of electronic and thermal Enthalpies=            -225.129386
 Sum of electronic and thermal Free Energies=         -225.161429

                     E (Thermal)             CV                S
                      KCal/Mol        Cal/Mol-Kelvin    Cal/Mol-Kelvin
 Total                   37.963             14.734             67.440
 Electronic               0.000              0.000              0.000
 Translational            0.889              2.981             38.526
 Rotational               0.889              2.981             23.913
 Vibrational             36.185              8.772              5.001
 Vibration     1          0.629              1.868              2.338
 Vibration     2          0.790              1.408              0.863

 Optimization completed.
    -- Stationary point found.
 Normal termination of Gaussian 09 at Tue Mar  6 08:35:45 2018.
