 Gaussian 09, Revision B.01,
 Gaussian 09:  EM64L-G09RevB.01 12-Aug-2010

 -------------------------------------------------
 #p Temperature=298.15 opt freq UB3LYP/aug-cc-pVDZ
 -------------------------------------------------

 --------------------------------------
 Pyrazole-3+-UB3LYP-aug-cc-pVDZ-Triplet
 --------------------------------------
 Symbolic Z-matrix:
 Charge =  1 Multiplicity = 3

 SCF Done:  E(UB3LYP) =  -225.167678358     A.U. after   20 cycles
 SCF Done:  E(UB3LYP) =  -225.184977815     A.U. after   19 cycles
 SCF Done:  E(UB3LYP) =  -225.186815593     A.U. after   18 cycles
 SCF Done:  E(UB3LYP) =  -225.187178569     A.U. after   16 cycles
 SCF Done:  E(UB3LYP) =  -225.187300070     A.U. after   19 cycles
 SCF Done:  E(UB3LYP) =  -225.187529040     A.U. after   15 cycles
 SCF Done:  E(UB3LYP) =  -225.187643667     A.U. after   15 cycles
 SCF Done:  E(UB3LYP) =  -225.187706305     A.U. after   21 cycles
 SCF Done:  E(UB3LYP) =  -225.187714869     A.U. after   14 cycles
 SCF Done:  E(UB3LYP) =  -225.187715492     A.U. after   21 cycles
 Optimization completed.
    -- Stationary point found.
 Normal termination of Gaussian 09 at Fri Jan 21 06:14:35 2005.

 ----------------------------------------------------------------------
 #P Geom=AllCheck Guess=TCheck SCRF=Check GenChk UB3LYP/Aug-CC-pVDZ Fre
 q
 ----------------------------------------------------------------------

 Pyrazole-3+-UB3LYP-aug-cc-pVDZ-Triplet
 --------------------------------------
 Redundant internal coordinates taken from checkpoint file:
 Pyrazole-3+-UB3LYP-aug-cc-pVDZ-Triplet.chk
 Charge =  1 Multiplicity = 3

                         Standard orientation:
 ---------------------------------------------------------------------
 Center     Atomic      Atomic             Coordinates (Angstroms)
 Number     Number       Type             X           Y           Z
 ---------------------------------------------------------------------
      1          6           0       -0.304966   -1.168236   -0.000460
      2          6           0       -1.249695   -0.150418    0.000490
      3          1           0       -2.333098   -0.216219    0.000613
      4          7           0        0.895892    0.565921    0.000252
      5          1           0        1.730847    1.156826    0.000415
      6          6           0       -0.461117    0.993295   -0.000437
      7          1           0       -0.715995    2.052441   -0.000642
      8          7           0        1.020239   -0.714621    0.000041
 ---------------------------------------------------------------------

 SCF Done:  E(UB3LYP) =  -225.187715492     A.U. after    1 cycles

 The electronic state is 3-A.
 Alpha  occ. eigenvalues --  -14.70376 -14.67125 -10.53261 -10.52390 -10.45341
 Alpha  occ. eigenvalues --   -1.35963  -1.08938  -1.07629  -0.88268  -0.86000
 Alpha  occ. eigenvalues --   -0.81356  -0.73941  -0.70492  -0.69044  -0.59020
 Alpha  occ. eigenvalues --   -0.54792  -0.54439  -0.54250
 Alpha virt. eigenvalues --   -0.28971  -0.21178  -0.17825  -0.14239  -0.12801
 Alpha virt. eigenvalues --   -0.11379  -0.10992  -0.09628  -0.08824  -0.08206
 Alpha virt. eigenvalues --   -0.05852  -0.05292  -0.04967  -0.04070  -0.03158

  Beta  occ. eigenvalues --  -14.70075 -14.66286 -10.51760 -10.51004 -10.45451
  Beta  occ. eigenvalues --   -1.34312  -1.06466  -1.05991  -0.87316  -0.83264
  Beta  occ. eigenvalues --   -0.80073  -0.70031  -0.69408  -0.68277  -0.57395
  Beta  occ. eigenvalues --   -0.52982
  Beta virt. eigenvalues --   -0.42944  -0.35296  -0.23938  -0.17749  -0.17598
  Beta virt. eigenvalues --   -0.14004  -0.12330  -0.11187  -0.10706  -0.09395
  Beta virt. eigenvalues --   -0.08178  -0.06715  -0.05692  -0.04946  -0.04621

 Mulliken atomic charges:
              1
     1  C   -0.079317
     2  C    1.259653
     3  H   -0.331458
     4  N    0.149645
     5  H   -0.006595
     6  C    0.658687
     7  H   -0.389863
     8  N   -0.260753
 Sum of Mulliken atomic charges =   1.00000

 Dipole moment (field-independent basis, Debye):
    X=             -0.5486    Y=              2.8932    Z=             -0.0005  Tot=              2.9448
 Quadrupole moment (field-independent basis, Debye-Ang):
   XX=            -17.4447   YY=            -18.2827   ZZ=            -27.1903
   XY=              3.3460   XZ=              0.0000   YZ=              0.0000

  Exact polarizability:  45.783  -0.223  47.207  -0.002   0.001  25.605
 Approx polarizability:  70.844  -0.877  87.279  -0.005   0.002  37.717

                     1                      2                      3
                     A                      A                      A
 Frequencies --   508.6147               574.4830               645.8498
 Red. masses --     2.7240                 4.5551                11.1782
 Frc consts  --     0.4152                 0.8857                 2.7472
 IR Inten    --     1.8262                 4.1912                52.2834

                     4                      5                      6
                     A                      A                      A
 Frequencies --   749.2321               799.9266               862.0927
 Red. masses --     1.2576                 1.3342                 5.5830
 Frc consts  --     0.4159                 0.5030                 2.4447
 IR Inten    --    37.6729                82.4835                10.7099

                     7                      8                      9
                     A                      A                      A
 Frequencies --   901.8713               936.2230              1011.4181
 Red. masses --     1.4333                 3.4923                 1.4934
 Frc consts  --     0.6869                 1.8035                 0.9001
 IR Inten    --     4.5745                 0.6670                 8.0326

                    10                     11                     12
                     A                      A                      A
 Frequencies --  1121.9880              1165.0477              1287.2413
 Red. masses --     5.8331                 1.9252                 2.1822
 Frc consts  --     4.3264                 1.5397                 2.1304
 IR Inten    --    14.4400                35.0186                91.2102

                    13                     14                     15
                     A                      A                      A
 Frequencies --  1367.2022              1442.1791              1508.7725
 Red. masses --     2.4750                 2.8770                 2.3529
 Frc consts  --     2.7258                 3.5255                 3.1558
 IR Inten    --     2.0298                16.0662                49.3989

                    16                     17                     18
                     A                      A                      A
 Frequencies --  3241.6090              3278.9797              3502.0056
 Red. masses --     1.0987                 1.1044                 1.0835
 Frc consts  --     6.8025                 6.9962                 7.8290
 IR Inten    --    28.1441                55.6469               226.4082

 - Thermochemistry -
 -------------------
 Temperature   298.150 Kelvin.  Pressure   1.00000 Atm.
 Atom     1 has atomic number  6 and mass  12.00000

 Molecular mass:    67.02962 amu.
 Principal axes and moments of inertia in atomic units:
                           1         2         3
     Eigenvalues --   162.67304 204.62306 367.29603
           X            0.99655   0.08299   0.00000
           Y           -0.08299   0.99655  -0.00002
           Z            0.00000   0.00002   1.00000
 This molecule is an asymmetric top.
 Rotational symmetry number  1.
 Rotational temperatures (Kelvin)      0.53244     0.42328     0.23581
 Rotational constants (GHZ):          11.09429     8.81983     4.91359
 Zero-point vibrational energy     148963.4 (Joules/Mol)
                                   35.60311 (Kcal/Mol)
 Warning -- explicit consideration of   2 degrees of freedom as
           vibrations may cause significant error
 Vibrational temperatures:    731.78   826.55   929.23  1077.98  1150.91
          (Kelvin)           1240.36  1297.59  1347.01  1455.20  1614.29
                             1676.24  1852.05  1967.10  2074.97  2170.78
                             4663.95  4717.71  5038.60

 Zero-point correction=                           0.056737 (Hartree/Particle)
 Thermal correction to Energy=                    0.060543
 Thermal correction to Enthalpy=                  0.061487
 Thermal correction to Gibbs Free Energy=         0.029469
 Sum of electronic and zero-point Energies=           -225.130978
 Sum of electronic and thermal Energies=              -225.127173
 Sum of electronic and thermal Enthalpies=            -225.126228
 Sum of electronic and thermal Free Energies=         -225.158247

                     E (Thermal)             CV                S
                      KCal/Mol        Cal/Mol-Kelvin    Cal/Mol-Kelvin
 Total                   37.991             13.400             67.388
 Electronic               0.000              0.000              2.183
 Translational            0.889              2.981             38.526
 Rotational               0.889              2.981             24.018
 Vibrational             36.214              7.439              2.662
 Vibration     1          0.864              1.231              0.637
 Vibration     2          0.931              1.086              0.496

 Optimization completed.
    -- Stationary point found.
 Normal termination of Gaussian 09 at Fri Jan 21 06:15:46 2005.
