 Gaussian 09, Revision B.01,
 Gaussian 09:  EM64L-G09RevB.01 12-Aug-2010

 -------------------------------------------------
 #p Temperature=298.15 opt freq UB3LYP/aug-cc-pVDZ
 -------------------------------------------------

 ---------------------------------------
 Pyrazole-4-N2-UB3LYP-aug-cc-pVDZ-Duplet
 ---------------------------------------
 Symbolic Z-matrix:
 Charge =  0 Multiplicity = 2

 SCF Done:  E(UB3LYP) =  -335.030162966     A.U. after   24 cycles
 SCF Done:  E(UB3LYP) =  -335.053070832     A.U. after   21 cycles
 SCF Done:  E(UB3LYP) =  -335.056169257     A.U. after   20 cycles
 SCF Done:  E(UB3LYP) =  -335.056226015     A.U. after   19 cycles
 SCF Done:  E(UB3LYP) =  -335.056318231     A.U. after   23 cycles
 SCF Done:  E(UB3LYP) =  -335.056340564     A.U. after   23 cycles
 SCF Done:  E(UB3LYP) =  -335.056341156     A.U. after   16 cycles
 SCF Done:  E(UB3LYP) =  -335.056343612     A.U. after   24 cycles
 SCF Done:  E(UB3LYP) =  -335.056348498     A.U. after   17 cycles
 SCF Done:  E(UB3LYP) =  -335.056371965     A.U. after   20 cycles
 SCF Done:  E(UB3LYP) =  -335.083204431     A.U. after   19 cycles
 SCF Done:  E(UB3LYP) =  -335.084000239     A.U. after   19 cycles
 SCF Done:  E(UB3LYP) =  -335.084591938     A.U. after   16 cycles
 SCF Done:  E(UB3LYP) =  -335.084894134     A.U. after   15 cycles
 SCF Done:  E(UB3LYP) =  -335.085057381     A.U. after   16 cycles
 SCF Done:  E(UB3LYP) =  -335.085149810     A.U. after   14 cycles
 SCF Done:  E(UB3LYP) =  -335.085169252     A.U. after   13 cycles
 SCF Done:  E(UB3LYP) =  -335.085169189     A.U. after   12 cycles
 SCF Done:  E(UB3LYP) =  -335.085172938     A.U. after   12 cycles
 Optimization completed.
    -- Stationary point found.
 Normal termination of Gaussian 09 at Tue Mar  6 13:53:14 2018.

 ----------------------------------------------------------------------
 #P Geom=AllCheck Guess=TCheck SCRF=Check GenChk UB3LYP/Aug-CC-pVDZ Fre
 q
 ----------------------------------------------------------------------

 Pyrazole-4-N2-UB3LYP-aug-cc-pVDZ-Duplet
 ---------------------------------------
 Redundant internal coordinates taken from checkpoint file:
 Pyrazole-4-N2-UB3LYP-aug-cc-pVDZ-Duplet.chk
 Charge =  0 Multiplicity = 2

                         Standard orientation:
 ---------------------------------------------------------------------
 Center     Atomic      Atomic             Coordinates (Angstroms)
 Number     Number       Type             X           Y           Z
 ---------------------------------------------------------------------
      1          7           0        1.757841    0.471252    0.000464
      2          7           0        2.625781   -0.341593   -0.000476
      3          6           0        0.363341    0.179073    0.000079
      4          6           0       -0.669059    1.149009   -0.000033
      5          1           0       -0.574847    2.230327   -0.000133
      6          7           0       -1.602581   -0.758137   -0.000073
      7          1           0       -2.377657   -1.406437   -0.000011
      8          6           0       -0.284386   -1.053570    0.000225
      9          1           0        0.096694   -2.068068    0.000267
     10          7           0       -1.867265    0.570922   -0.000165
 ---------------------------------------------------------------------

 SCF Done:  E(UB3LYP) =  -335.085172938     A.U. after    1 cycles

 The electronic state is 2-A.
 Alpha  occ. eigenvalues --  -14.44106 -14.42381 -14.39790 -14.38000 -10.25999
 Alpha  occ. eigenvalues --  -10.24911 -10.23530  -1.08384  -1.07084  -0.85613
 Alpha  occ. eigenvalues --   -0.83100  -0.71778  -0.63630  -0.59222  -0.55975
 Alpha  occ. eigenvalues --   -0.48429  -0.47945  -0.47066  -0.44721  -0.43395
 Alpha  occ. eigenvalues --   -0.40686  -0.32363  -0.29587  -0.28029  -0.21198
 Alpha virt. eigenvalues --   -0.07224  -0.02304  -0.01603   0.00880   0.01035
 Alpha virt. eigenvalues --    0.03440   0.03720   0.04670   0.05897   0.06482
 Alpha virt. eigenvalues --    0.07801   0.07949   0.09113   0.09419   0.09496

  Beta  occ. eigenvalues --  -14.44113 -14.42000 -14.38206 -14.37989 -10.26003
  Beta  occ. eigenvalues --  -10.24564 -10.23554  -1.08186  -1.05431  -0.85576
  Beta  occ. eigenvalues --   -0.82392  -0.70385  -0.63514  -0.58937  -0.55136
  Beta  occ. eigenvalues --   -0.47931  -0.47854  -0.44913  -0.42833  -0.42714
  Beta  occ. eigenvalues --   -0.37334  -0.32127  -0.29590  -0.27613
  Beta virt. eigenvalues --   -0.06868  -0.06229  -0.02237  -0.01540   0.00957
  Beta virt. eigenvalues --    0.01062   0.03586   0.03731   0.04734   0.05982
  Beta virt. eigenvalues --    0.06639   0.07846   0.07909   0.09105   0.09584

 Mulliken atomic charges:
              1
     1  N    0.100089
     2  N   -0.583630
     3  C    0.536480
     4  C    0.574505
     5  H   -0.513377
     6  N   -0.003103
     7  H   -0.102654
     8  C    1.044134
     9  H   -0.593810
    10  N   -0.458634
 Sum of Mulliken atomic charges =   0.00000

 Dipole moment (field-independent basis, Debye):
    X=             -2.4937    Y=             -2.1417    Z=              0.0006  Tot=              3.2872
 Quadrupole moment (field-independent basis, Debye-Ang):
   XX=            -48.5658   YY=            -33.7712   ZZ=            -41.1059
   XY=              6.1005   XZ=              0.0003   YZ=             -0.0023

  Exact polarizability:  88.694  -2.839  66.315  -0.003   0.002  38.860
 Approx polarizability: 141.621  -7.962 110.897  -0.009   0.005  58.315

                     1                      2                      3
                     A                      A                      A
 Frequencies --   127.1211               228.1183               293.4297
 Red. masses --    10.3571                 6.5871                 8.2991
 Frc consts  --     0.0986                 0.2020                 0.4210
 IR Inten    --     2.7625                 6.1052                 0.0031

                     4                      5                      6
                     A                      A                      A
 Frequencies --   483.0264               582.7248               637.7207
 Red. masses --     8.2814                 2.0361                 2.1490
 Frc consts  --     1.1384                 0.4074                 0.5149
 IR Inten    --     3.6708                56.6816                 0.0016

                     7                      8                      9
                     A                      A                      A
 Frequencies --   658.2182               690.8649               821.7657
 Red. masses --     9.2740                 2.3017                 1.4093
 Frc consts  --     2.3673                 0.6473                 0.5607
 IR Inten    --    25.8779                45.3682                11.2181

                    10                     11                     12
                     A                      A                      A
 Frequencies --   885.4207               936.3899              1001.6359
 Red. masses --     1.3583                 5.7072                 3.0115
 Frc consts  --     0.6274                 2.9484                 1.7801
 IR Inten    --    26.1500                12.0892                23.0811

                    13                     14                     15
                     A                      A                      A
 Frequencies --  1040.5155              1151.4372              1198.1486
 Red. masses --     2.3314                 1.7351                 1.9565
 Frc consts  --     1.4872                 1.3554                 1.6548
 IR Inten    --    24.2921                 6.7942                 4.2271

                    16                     17                     18
                     A                      A                      A
 Frequencies --  1304.8931              1385.6205              1423.2580
 Red. masses --     2.2479                 5.5918                 5.6885
 Frc consts  --     2.2552                 6.3255                 6.7892
 IR Inten    --    13.2755                11.2054                 6.1405

                    19                     20                     21
                     A                      A                      A
 Frequencies --  1487.0678              1559.8648              1826.8704
 Red. masses --     2.9244                 3.0728                13.8277
 Frc consts  --     3.8102                 4.4052                27.1904
 IR Inten    --    17.3618                18.1490                29.3325

                    22                     23                     24
                     A                      A                      A
 Frequencies --  3258.3163              3278.4545              3643.9272
 Red. masses --     1.0983                 1.0998                 1.0825
 Frc consts  --     6.8699                 6.9647                 8.4684
 IR Inten    --     0.0358                 4.2173               106.4089

 - Thermochemistry -
 -------------------
 Temperature   298.150 Kelvin.  Pressure   1.00000 Atm.
 Atom     1 has atomic number  7 and mass  14.00307

 Molecular mass:    95.03577 amu.
 Principal axes and moments of inertia in atomic units:
                           1         2         3
     Eigenvalues --   207.78498 851.721021059.50595
           X            0.99995   0.01045   0.00000
           Y           -0.01045   0.99995  -0.00001
           Z            0.00000   0.00001   1.00000
 This molecule is an asymmetric top.
 Rotational symmetry number  1.
 Rotational temperatures (Kelvin)      0.41684     0.10169     0.08175
 Rotational constants (GHZ):           8.68562     2.11893     1.70338
 Zero-point vibrational energy     178870.5 (Joules/Mol)
                                   42.75107 (Kcal/Mol)
 Warning -- explicit consideration of   5 degrees of freedom as
           vibrations may cause significant error
 Vibrational temperatures:    182.90   328.21   422.18   694.97   838.41
          (Kelvin)            917.54   947.03   994.00  1182.34  1273.92
                             1347.25  1441.13  1497.07  1656.66  1723.87
                             1877.45  1993.60  2047.75  2139.56  2244.29
                             2628.46  4687.98  4716.96  5242.79

 Zero-point correction=                           0.068128 (Hartree/Particle)
 Thermal correction to Energy=                    0.073703
 Thermal correction to Enthalpy=                  0.074647
 Thermal correction to Gibbs Free Energy=         0.038029
 Sum of electronic and zero-point Energies=           -335.017045
 Sum of electronic and thermal Energies=              -335.011470
 Sum of electronic and thermal Enthalpies=            -335.010526
 Sum of electronic and thermal Free Energies=         -335.047144

                     E (Thermal)             CV                S
                      KCal/Mol        Cal/Mol-Kelvin    Cal/Mol-Kelvin
 Total                   46.249             19.699             77.069
 Electronic               0.000              0.000              1.377
 Translational            0.889              2.981             39.566
 Rotational               0.889              2.981             26.730
 Vibrational             44.472             13.737              9.395
 Vibration     1          0.611              1.926              2.989
 Vibration     2          0.651              1.798              1.894
 Vibration     3          0.688              1.686              1.454
 Vibration     4          0.839              1.288              0.702
 Vibration     5          0.940              1.069              0.480

 Optimization completed.
    -- Stationary point found.
 Normal termination of Gaussian 09 at Tue Mar  6 13:56:57 2018.
