 Gaussian 09, Revision B.01,
 Gaussian 09:  EM64L-G09RevB.01 12-Aug-2010

 -------------------------------------------------
 #p Temperature=298.15 opt freq UB3LYP/aug-cc-pVDZ
 -------------------------------------------------

 --------------------------------------
 Pyrazole-5+-UB3LYP-aug-cc-pVDZ-Triplet
 --------------------------------------
 Symbolic Z-matrix:
 Charge =  1 Multiplicity = 3

 SCF Done:  E(UB3LYP) =  -225.175906348     A.U. after   18 cycles
 SCF Done:  E(UB3LYP) =  -225.190818335     A.U. after   17 cycles
 SCF Done:  E(UB3LYP) =  -225.191991607     A.U. after   15 cycles
 SCF Done:  E(UB3LYP) =  -225.192116205     A.U. after   18 cycles
 SCF Done:  E(UB3LYP) =  -225.192199678     A.U. after   17 cycles
 SCF Done:  E(UB3LYP) =  -225.192286477     A.U. after   17 cycles
 SCF Done:  E(UB3LYP) =  -225.192371676     A.U. after   15 cycles
 SCF Done:  E(UB3LYP) =  -225.192439379     A.U. after   17 cycles
 SCF Done:  E(UB3LYP) =  -225.192494764     A.U. after   17 cycles
 SCF Done:  E(UB3LYP) =  -225.192511251     A.U. after   18 cycles
 SCF Done:  E(UB3LYP) =  -225.192513849     A.U. after   18 cycles
 SCF Done:  E(UB3LYP) =  -225.192514582     A.U. after   18 cycles
 Optimization completed.
    -- Stationary point found.
 Normal termination of Gaussian 09 at Fri Jan 21 08:08:38 2005.

 ----------------------------------------------------------------------
 #P Geom=AllCheck Guess=TCheck SCRF=Check GenChk UB3LYP/Aug-CC-pVDZ Fre
 q
 ----------------------------------------------------------------------

 Pyrazole-5+-UB3LYP-aug-cc-pVDZ-Triplet
 --------------------------------------
 Redundant internal coordinates taken from checkpoint file:
 Pyrazole-5+-UB3LYP-aug-cc-pVDZ-Triplet.chk
 Charge =  1 Multiplicity = 3

                         Standard orientation:
 ---------------------------------------------------------------------
 Center     Atomic      Atomic             Coordinates (Angstroms)
 Number     Number       Type             X           Y           Z
 ---------------------------------------------------------------------
      1          6           0        0.330040   -1.148852    0.000030
      2          7           0        1.151834   -0.136685    0.000094
      3          1           0        2.170412   -0.106665    0.000188
      4          6           0       -0.885052    0.715438    0.000094
      5          1           0       -1.634895    1.502751    0.000562
      6          6           0       -1.052541   -0.664317   -0.000160
      7          1           0       -1.950636   -1.276631    0.000130
      8          7           0        0.428228    1.060532   -0.000189
 ---------------------------------------------------------------------

 SCF Done:  E(UB3LYP) =  -225.192514582     A.U. after    1 cycles

 The electronic state is 3-A.
 Alpha  occ. eigenvalues --  -14.68110 -14.66346 -10.56250 -10.49198 -10.47295
 Alpha  occ. eigenvalues --   -1.32987  -1.10942  -1.05942  -0.88627  -0.86456
 Alpha  occ. eigenvalues --   -0.78193  -0.72344  -0.71919  -0.67958  -0.59517
 Alpha  occ. eigenvalues --   -0.55751  -0.55493  -0.53911
 Alpha virt. eigenvalues --   -0.27886  -0.21784  -0.17056  -0.13946  -0.12316
 Alpha virt. eigenvalues --   -0.11538  -0.11206  -0.10737  -0.09036  -0.07850
 Alpha virt. eigenvalues --   -0.06223  -0.04977  -0.04955  -0.03841  -0.02566

  Beta  occ. eigenvalues --  -14.68289 -14.65049 -10.54114 -10.48472 -10.47514
  Beta  occ. eigenvalues --   -1.31294  -1.09432  -1.02692  -0.87623  -0.85489
  Beta  occ. eigenvalues --   -0.75283  -0.71230  -0.69169  -0.66952  -0.55803
  Beta  occ. eigenvalues --   -0.53605
  Beta virt. eigenvalues --   -0.42426  -0.38726  -0.23124  -0.18440  -0.16897
  Beta virt. eigenvalues --   -0.13742  -0.11978  -0.11302  -0.10481  -0.09733
  Beta virt. eigenvalues --   -0.08714  -0.07077  -0.06086  -0.04640  -0.04522

 Mulliken atomic charges:
              1
     1  C    0.123352
     2  N    0.078949
     3  H   -0.019425
     4  C    0.644314
     5  H   -0.319223
     6  C    0.986954
     7  H   -0.359485
     8  N   -0.135436
 Sum of Mulliken atomic charges =   1.00000

 Dipole moment (field-independent basis, Debye):
    X=             -0.0505    Y=             -1.7995    Z=              0.0010  Tot=              1.8002
 Quadrupole moment (field-independent basis, Debye-Ang):
   XX=            -12.3980   YY=            -22.3877   ZZ=            -27.1117
   XY=             -1.3010   XZ=             -0.0003   YZ=              0.0013

  Exact polarizability:  48.346   1.786  48.078   0.001   0.001  25.229
 Approx polarizability:  78.973   8.521  89.803   0.001   0.000  37.132

                     1                      2                      3
                     A                      A                      A
 Frequencies --   418.3945               450.2348               555.5283
 Red. masses --     4.0972                11.8919                 4.5820
 Frc consts  --     0.4226                 1.4203                 0.8331
 IR Inten    --     1.4262                99.3946                 0.0050

                     4                      5                      6
                     A                      A                      A
 Frequencies --   670.7591               774.6831               846.1813
 Red. masses --     1.1285                 1.3359                 5.4024
 Frc consts  --     0.2991                 0.4724                 2.2791
 IR Inten    --    95.6655                46.3077                26.3396

                     7                      8                      9
                     A                      A                      A
 Frequencies --   895.0138               933.4219              1013.6762
 Red. masses --     5.7733                 1.3580                 2.8238
 Frc consts  --     2.7248                 0.6971                 1.7096
 IR Inten    --     7.5382                 7.2690                24.9030

                    10                     11                     12
                     A                      A                      A
 Frequencies --  1045.9930              1149.3238              1295.8759
 Red. masses --     1.6250                 4.2632                 1.2759
 Frc consts  --     1.0475                 3.3180                 1.2624
 IR Inten    --     9.5052                 3.9847                11.5938

                    13                     14                     15
                     A                      A                      A
 Frequencies --  1347.7087              1406.3161              1485.5525
 Red. masses --     1.7157                 3.7510                 3.7245
 Frc consts  --     1.8360                 4.3708                 4.8428
 IR Inten    --    55.0323                47.2872                45.6723

                    16                     17                     18
                     A                      A                      A
 Frequencies --  3253.7955              3271.2365              3556.7556
 Red. masses --     1.0954                 1.1055                 1.0851
 Frc consts  --     6.8331                 6.9697                 8.0877
 IR Inten    --    29.1383                41.3538               288.9874

 - Thermochemistry -
 -------------------
 Temperature   298.150 Kelvin.  Pressure   1.00000 Atm.
 Atom     1 has atomic number  6 and mass  12.00000

 Molecular mass:    67.02962 amu.
 Principal axes and moments of inertia in atomic units:
                           1         2         3
     Eigenvalues --   168.60071 201.40063 370.00133
           X            0.99976  -0.02177  -0.00001
           Y            0.02177   0.99976   0.00001
           Z            0.00001  -0.00001   1.00000
 This molecule is an asymmetric top.
 Rotational symmetry number  1.
 Rotational temperatures (Kelvin)      0.51372     0.43006     0.23409
 Rotational constants (GHZ):          10.70423     8.96095     4.87766
 Zero-point vibrational energy     145767.7 (Joules/Mol)
                                   34.83931 (Kcal/Mol)
 Warning -- explicit consideration of   3 degrees of freedom as
           vibrations may cause significant error
 Vibrational temperatures:    601.98   647.79   799.28   965.07  1114.59
          (Kelvin)           1217.46  1287.72  1342.98  1458.45  1504.95
                             1653.62  1864.47  1939.05  2023.37  2137.38
                             4681.48  4706.57  5117.37

 Zero-point correction=                           0.055520 (Hartree/Particle)
 Thermal correction to Energy=                    0.059593
 Thermal correction to Enthalpy=                  0.060537
 Thermal correction to Gibbs Free Energy=         0.028093
 Sum of electronic and zero-point Energies=           -225.136995
 Sum of electronic and thermal Energies=              -225.132921
 Sum of electronic and thermal Enthalpies=            -225.131977
 Sum of electronic and thermal Free Energies=         -225.164422

                     E (Thermal)             CV                S
                      KCal/Mol        Cal/Mol-Kelvin    Cal/Mol-Kelvin
 Total                   37.395             14.391             68.285
 Electronic               0.000              0.000              2.183
 Translational            0.889              2.981             38.526
 Rotational               0.889              2.981             24.045
 Vibrational             35.618              8.430              3.532
 Vibration     1          0.781              1.430              0.897
 Vibration     2          0.809              1.360              0.795
 Vibration     3          0.911              1.128              0.533

 Optimization completed.
    -- Stationary point found.
 Normal termination of Gaussian 09 at Fri Jan 21 08:09:48 2005.
