 Gaussian 09, Revision B.01,
 Gaussian 09:  EM64L-G09RevB.01 12-Aug-2010

 -------------------------------------------------
 #p Temperature=298.15 opt freq UB3LYP/aug-cc-pVDZ
 -------------------------------------------------

 -----------------------------------------
 Pyrazole-3-N2+-UB3LYP-aug-cc-pVDZ-Singlet
 -----------------------------------------
 Symbolic Z-matrix:
 Charge =  1 Multiplicity = 1

 SCF Done:  E(UB3LYP) =  -334.794522897     A.U. after   15 cycles
 SCF Done:  E(UB3LYP) =  -334.824062006     A.U. after   12 cycles
 SCF Done:  E(UB3LYP) =  -334.828575005     A.U. after   15 cycles
 SCF Done:  E(UB3LYP) =  -334.828242500     A.U. after   14 cycles
 SCF Done:  E(UB3LYP) =  -334.828776459     A.U. after   15 cycles
 SCF Done:  E(UB3LYP) =  -334.828899428     A.U. after   15 cycles
 SCF Done:  E(UB3LYP) =  -334.828915700     A.U. after   10 cycles
 SCF Done:  E(UB3LYP) =  -334.828914347     A.U. after   10 cycles
 SCF Done:  E(UB3LYP) =  -334.828916625     A.U. after    9 cycles
 Optimization completed.
    -- Stationary point found.
 Normal termination of Gaussian 09 at Tue Mar  6 08:27:49 2018.

 ----------------------------------------------------------------------
 #P Geom=AllCheck Guess=TCheck SCRF=Check GenChk UB3LYP/Aug-CC-pVDZ Fre
 q
 ----------------------------------------------------------------------

 Pyrazole-3-N2+-UB3LYP-aug-cc-pVDZ-Singlet
 -----------------------------------------
 Redundant internal coordinates taken from checkpoint file:
 Pyrazole-3-N2+-UB3LYP-aug-cc-pVDZ-Singlet.chk
 Charge =  1 Multiplicity = 1

                         Standard orientation:
 ---------------------------------------------------------------------
 Center     Atomic      Atomic             Coordinates (Angstroms)
 Number     Number       Type             X           Y           Z
 ---------------------------------------------------------------------
      1          7           0        1.674953   -0.003003   -0.000012
      2          7           0        2.787751   -0.017774    0.000008
      3          6           0        0.307335    0.044442   -0.000037
      4          6           0       -0.527019    1.193472    0.000077
      5          1           0       -0.248544    2.241222    0.000096
      6          7           0       -1.615762   -0.727360    0.000032
      7          1           0       -2.344180   -1.437913    0.000239
      8          6           0       -1.787237    0.632875   -0.000089
      9          1           0       -2.772009    1.089220   -0.000084
     10          7           0       -0.360334   -1.125757   -0.000023
 ---------------------------------------------------------------------

 SCF Done:  E(UB3LYP) =  -334.828916624     A.U. after    1 cycles

 The electronic state is 1-A.
 Alpha  occ. eigenvalues --  -14.74540 -14.71119 -14.64505 -14.60022 -10.50768
 Alpha  occ. eigenvalues --  -10.44513 -10.42413  -1.39974  -1.29911  -1.11496
 Alpha  occ. eigenvalues --   -1.02795  -0.98121  -0.84852  -0.77542  -0.76096
 Alpha  occ. eigenvalues --   -0.75162  -0.72653  -0.70652  -0.66987  -0.65793
 Alpha  occ. eigenvalues --   -0.63788  -0.53867  -0.50807  -0.48083
 Alpha virt. eigenvalues --   -0.30818  -0.30129  -0.20235  -0.15641  -0.14263
 Alpha virt. eigenvalues --   -0.13791  -0.11498  -0.10854  -0.09781  -0.09696
 Alpha virt. eigenvalues --   -0.08297  -0.06045  -0.05354  -0.05116  -0.04510

  Beta  occ. eigenvalues --  -14.74540 -14.71119 -14.64505 -14.60022 -10.50768
  Beta  occ. eigenvalues --  -10.44513 -10.42413  -1.39974  -1.29911  -1.11496
  Beta  occ. eigenvalues --   -1.02795  -0.98121  -0.84852  -0.77542  -0.76096
  Beta  occ. eigenvalues --   -0.75162  -0.72653  -0.70652  -0.66987  -0.65793
  Beta  occ. eigenvalues --   -0.63788  -0.53867  -0.50807  -0.48083
  Beta virt. eigenvalues --   -0.30818  -0.30129  -0.20235  -0.15641  -0.14263
  Beta virt. eigenvalues --   -0.13791  -0.11498  -0.10854  -0.09781  -0.09696
  Beta virt. eigenvalues --   -0.08297  -0.06045  -0.05354  -0.05116  -0.04510

 Mulliken atomic charges:
              1
     1  N    0.617958
     2  N   -0.466119
     3  C    0.215792
     4  C    1.337223
     5  H   -0.511872
     6  N    0.050858
     7  H   -0.059735
     8  C    0.445587
     9  H   -0.453621
    10  N   -0.176070
 Sum of Mulliken atomic charges =   1.00000

 Dipole moment (field-independent basis, Debye):
    X=             -1.4354    Y=              1.3087    Z=              0.0003  Tot=              1.9424
 Quadrupole moment (field-independent basis, Debye-Ang):
   XX=            -13.5708   YY=            -30.9635   ZZ=            -38.0823
   XY=              2.4185   XZ=             -0.0007   YZ=             -0.0005

  Exact polarizability:  94.418  -0.195  53.753   0.000   0.000  32.718
 Approx polarizability: 179.820   3.902  93.614   0.002   0.001  49.215

                     1                      2                      3
                     A                      A                      A
 Frequencies --   177.0753               182.7273               509.2222
 Red. masses --     6.7591                 7.6503                10.0864
 Frc consts  --     0.1249                 0.1505                 1.5410
 IR Inten    --     3.2047                 0.3423                 3.3413

                     4                      5                      6
                     A                      A                      A
 Frequencies --   541.4137               586.4619               619.7588
 Red. masses --     8.4468                10.6627                 3.6361
 Frc consts  --     1.4588                 2.1607                 0.8229
 IR Inten    --     2.7811                10.4497                 0.1499

                     7                      8                      9
                     A                      A                      A
 Frequencies --   660.5889               759.5366               775.9134
 Red. masses --     7.8599                 1.1322                 1.2491
 Frc consts  --     2.0208                 0.3848                 0.4431
 IR Inten    --     1.6599               118.2670                26.8573

                    10                     11                     12
                     A                      A                      A
 Frequencies --   894.4789               935.1383               988.6620
 Red. masses --     1.3681                 5.1625                 4.3607
 Frc consts  --     0.6449                 2.6599                 2.5113
 IR Inten    --     0.0918                 1.2810                20.4267

                    13                     14                     15
                     A                      A                      A
 Frequencies --  1078.5349              1100.3509              1234.1440
 Red. masses --     1.2972                 1.9545                 2.6971
 Frc consts  --     0.8891                 1.3943                 2.4204
 IR Inten    --    25.2506                 4.9781                61.9649

                    16                     17                     18
                     A                      A                      A
 Frequencies --  1316.6475              1355.6871              1430.1443
 Red. masses --     6.1889                 3.1134                 4.3575
 Frc consts  --     6.3212                 3.3714                 5.2511
 IR Inten    --    46.3748                62.2976                 6.5395

                    19                     20                     21
                     A                      A                      A
 Frequencies --  1464.5408              1555.1811              2359.6098
 Red. masses --     2.9810                 2.5236                13.9791
 Frc consts  --     3.7672                 3.5961                45.8574
 IR Inten    --     5.4888                10.7270               174.6637

                    22                     23                     24
                     A                      A                      A
 Frequencies --  3270.1162              3289.1315              3569.9401
 Red. masses --     1.0967                 1.1083                 1.0845
 Frc consts  --     6.9100                 7.0640                 8.1435
 IR Inten    --    23.0193                29.3400               238.1541

 - Thermochemistry -
 -------------------
 Temperature   298.150 Kelvin.  Pressure   1.00000 Atm.
 Atom     1 has atomic number  7 and mass  14.00307

 Molecular mass:    95.03577 amu.
 Principal axes and moments of inertia in atomic units:
                           1         2         3
     Eigenvalues --   197.78694 865.375501063.16244
           X            1.00000  -0.00168   0.00000
           Y            0.00168   1.00000   0.00000
           Z            0.00000   0.00000   1.00000
 This molecule is an asymmetric top.
 Rotational symmetry number  1.
 Rotational temperatures (Kelvin)      0.43791     0.10009     0.08147
 Rotational constants (GHZ):           9.12467     2.08550     1.69752
 Zero-point vibrational energy     183357.7 (Joules/Mol)
                                   43.82353 (Kcal/Mol)
 Warning -- explicit consideration of   6 degrees of freedom as
           vibrations may cause significant error
 Vibrational temperatures:    254.77   262.90   732.66   778.97   843.79
          (Kelvin)            891.69   950.44  1092.80  1116.36  1286.95
                             1345.45  1422.46  1551.77  1583.16  1775.66
                             1894.36  1950.53  2057.66  2107.14  2237.56
                             3394.95  4704.96  4732.32  5136.34

 Zero-point correction=                           0.069837 (Hartree/Particle)
 Thermal correction to Energy=                    0.075134
 Thermal correction to Enthalpy=                  0.076079
 Thermal correction to Gibbs Free Energy=         0.040702
 Sum of electronic and zero-point Energies=           -334.759079
 Sum of electronic and thermal Energies=              -334.753782
 Sum of electronic and thermal Enthalpies=            -334.752838
 Sum of electronic and thermal Free Energies=         -334.788214

                     E (Thermal)             CV                S
                      KCal/Mol        Cal/Mol-Kelvin    Cal/Mol-Kelvin
 Total                   47.148             19.073             74.456
 Electronic               0.000              0.000              0.000
 Translational            0.889              2.981             39.566
 Rotational               0.889              2.981             26.701
 Vibrational             45.370             13.112              8.189
 Vibration     1          0.628              1.871              2.359
 Vibration     2          0.630              1.863              2.300
 Vibration     3          0.864              1.230              0.635
 Vibration     4          0.896              1.159              0.562
 Vibration     5          0.944              1.061              0.474
 Vibration     6          0.980              0.990              0.417

 Optimization completed.
    -- Stationary point found.
 Normal termination of Gaussian 09 at Tue Mar  6 08:31:13 2018.
