 Gaussian 09, Revision B.01,
 Gaussian 09:  EM64L-G09RevB.01 12-Aug-2010

 -------------------------------------------------
 #p Temperature=298.15 opt freq UB3LYP/aug-cc-pVDZ
 -------------------------------------------------

 -----------------------------------------
 Pyridine-4-N2+-UB3LYP-aug-cc-pVDZ-Singlet
 -----------------------------------------
 Symbolic Z-matrix:
 Charge =  1 Multiplicity = 1

 SCF Done:  E(UB3LYP) =  -356.886439864     A.U. after   16 cycles
 SCF Done:  E(UB3LYP) =  -356.898450799     A.U. after   16 cycles
 SCF Done:  E(UB3LYP) =  -356.898634537     A.U. after   11 cycles
 SCF Done:  E(UB3LYP) =  -356.898648315     A.U. after   10 cycles
 SCF Done:  E(UB3LYP) =  -356.898649804     A.U. after   17 cycles
 Optimization completed.
    -- Stationary point found.
 Normal termination of Gaussian 09 at Tue Mar  6 09:55:24 2018.

 ----------------------------------------------------------------------
 #P Geom=AllCheck Guess=TCheck SCRF=Check GenChk UB3LYP/Aug-CC-pVDZ Fre
 q
 ----------------------------------------------------------------------

 Pyridine-4-N2+-UB3LYP-aug-cc-pVDZ-Singlet
 -----------------------------------------
 Redundant internal coordinates taken from checkpoint file:
 Pyridine-4-N2+-UB3LYP-aug-cc-pVDZ-Singlet.chk
 Charge =  1 Multiplicity = 1

                         Standard orientation:
 ---------------------------------------------------------------------
 Center     Atomic      Atomic             Coordinates (Angstroms)
 Number     Number       Type             X           Y           Z
 ---------------------------------------------------------------------
      1          6           0       -1.513420    1.158144    0.000009
      2          6           0       -0.117335    1.235576   -0.000018
      3          6           0        0.546993    0.000021   -0.000021
      4          6           0       -0.117301   -1.235547   -0.000012
      5          6           0       -1.513392   -1.158175    0.000000
      6          1           0       -2.108558    2.072774    0.000030
      7          1           0        0.413698    2.185831   -0.000026
      8          7           0        1.943103    0.000058   -0.000017
      9          7           0        3.053931   -0.000045    0.000034
     10          1           0       -2.108498   -2.072835    0.000024
     11          1           0        0.413788   -2.185763   -0.000010
     12          7           0       -2.186134   -0.000030    0.000016
 ---------------------------------------------------------------------

 SCF Done:  E(UB3LYP) =  -356.898649805     A.U. after    2 cycles

 The electronic state is 1-A.
 Alpha  occ. eigenvalues --  -14.75347 -14.72187 -14.53770 -10.50402 -10.43029
 Alpha  occ. eigenvalues --  -10.43027 -10.42830 -10.42828  -1.41018  -1.15884
 Alpha  occ. eigenvalues --   -1.10917  -0.98295  -0.95860  -0.85786  -0.79704
 Alpha  occ. eigenvalues --   -0.75751  -0.75619  -0.72669  -0.69704  -0.68838
 Alpha  occ. eigenvalues --   -0.65215  -0.64684  -0.60924  -0.57847  -0.51759
 Alpha  occ. eigenvalues --   -0.47622  -0.45413
 Alpha virt. eigenvalues --   -0.32488  -0.30456  -0.22823  -0.20713  -0.16557
 Alpha virt. eigenvalues --   -0.12469  -0.11863  -0.11469  -0.10169  -0.08805
 Alpha virt. eigenvalues --   -0.08452  -0.07792  -0.06613  -0.05839  -0.05277

  Beta  occ. eigenvalues --  -14.75347 -14.72187 -14.53770 -10.50402 -10.43029
  Beta  occ. eigenvalues --  -10.43027 -10.42830 -10.42828  -1.41018  -1.15884
  Beta  occ. eigenvalues --   -1.10917  -0.98295  -0.95860  -0.85786  -0.79704
  Beta  occ. eigenvalues --   -0.75751  -0.75619  -0.72669  -0.69704  -0.68838
  Beta  occ. eigenvalues --   -0.65215  -0.64684  -0.60924  -0.57847  -0.51759
  Beta  occ. eigenvalues --   -0.47622  -0.45413
  Beta virt. eigenvalues --   -0.32488  -0.30456  -0.22823  -0.20713  -0.16557
  Beta virt. eigenvalues --   -0.12469  -0.11863  -0.11469  -0.10169  -0.08805
  Beta virt. eigenvalues --   -0.08452  -0.07792  -0.06613  -0.05839  -0.05277

 Mulliken atomic charges:
              1
     1  C   -0.097954
     2  C    1.713791
     3  C    0.403509
     4  C    1.713949
     5  C   -0.098021
     6  H   -0.524861
     7  H   -0.700209
     8  N    0.503138
     9  N   -0.582148
    10  H   -0.524836
    11  H   -0.700234
    12  N   -0.106123
 Sum of Mulliken atomic charges =   1.00000

 Dipole moment (field-independent basis, Debye):
    X=              3.7150    Y=              0.0001    Z=              0.0000  Tot=              3.7150
 Quadrupole moment (field-independent basis, Debye-Ang):
   XX=            -30.8317   YY=            -29.0433   ZZ=            -43.9056
   XY=              0.0000   XZ=             -0.0001   YZ=              0.0000

  Exact polarizability: 109.592   0.000  77.770   0.000   0.000  39.610
 Approx polarizability: 206.106  -0.001 138.438   0.001   0.000  61.208

                     1                      2                      3
                     A                      A                      A
 Frequencies --   143.6096               171.8460               353.6919
 Red. masses --     8.2060                 7.2801                 2.4767
 Frc consts  --     0.0997                 0.1267                 0.1825
 IR Inten    --     2.4518                 1.9854                 0.0000

                     4                      5                      6
                     A                      A                      A
 Frequencies --   392.2952               447.3514               541.1601
 Red. masses --     7.6210                10.2635                 8.3682
 Frc consts  --     0.6910                 1.2102                 1.4439
 IR Inten    --     4.5554                13.2950                 0.0223

                     7                      8                      9
                     A                      A                      A
 Frequencies --   559.9263               666.6310               710.3526
 Red. masses --     4.8762                 7.2283                 3.4022
 Frc consts  --     0.9007                 1.8926                 1.0115
 IR Inten    --    18.6642                 0.8644                 0.1310

                    10                     11                     12
                     A                      A                      A
 Frequencies --   761.3556               819.3157               840.0438
 Red. masses --     6.8686                 1.3404                 1.2611
 Frc consts  --     2.3458                 0.5301                 0.5243
 IR Inten    --     1.7312                45.4583                 0.0000

                    13                     14                     15
                     A                      A                      A
 Frequencies --   984.8089               995.7220              1014.6752
 Red. masses --     1.3584                 7.0432                 1.4700
 Frc consts  --     0.7762                 4.1143                 0.8917
 IR Inten    --     0.0203                 0.7811                 0.0000

                    16                     17                     18
                     A                      A                      A
 Frequencies --  1075.3293              1102.8823              1111.8462
 Red. masses --     1.8774                 1.4986                 5.5600
 Frc consts  --     1.2791                 1.0740                 4.0496
 IR Inten    --     3.2047                 2.9783                93.0178

                    19                     20                     21
                     A                      A                      A
 Frequencies --  1230.9898              1291.8857              1347.2473
 Red. masses --     1.3188                 9.3310                 1.3354
 Frc consts  --     1.1774                 9.1754                 1.4281
 IR Inten    --     1.8522                44.0184                 0.8448

                    22                     23                     24
                     A                      A                      A
 Frequencies --  1435.2822              1479.3025              1565.8293
 Red. masses --     2.0902                 1.9129                 4.7083
 Frc consts  --     2.5370                 2.4663                 6.8014
 IR Inten    --    38.4918                 0.0935                 3.2698

                    25                     26                     27
                     A                      A                      A
 Frequencies --  1593.7553              2364.9443              3193.8502
 Red. masses --     8.1613                13.9513                 1.0908
 Frc consts  --    12.2138                45.9734                 6.5558
 IR Inten    --    12.8419               124.1704                 0.1203

                    28                     29                     30
                     A                      A                      A
 Frequencies --  3196.3856              3225.4884              3225.5973
 Red. masses --     1.0947                 1.0965                 1.0981
 Frc consts  --     6.5898                 6.7213                 6.7314
 IR Inten    --     8.0085                17.7364                 3.8831

 - Thermochemistry -
 -------------------
 Temperature   298.150 Kelvin.  Pressure   1.00000 Atm.
 Atom     1 has atomic number  6 and mass  12.00000

 Molecular mass:   106.04052 amu.
 Principal axes and moments of inertia in atomic units:
                           1         2         3
     Eigenvalues --   311.115201137.323461448.43866
           X            1.00000   0.00000   0.00000
           Y            0.00000   1.00000   0.00000
           Z            0.00000   0.00000   1.00000
 This molecule is an asymmetric top.
 Rotational symmetry number  1.
 Rotational temperatures (Kelvin)      0.27840     0.07616     0.05980
 Rotational constants (GHZ):           5.80088     1.58683     1.24599
 Zero-point vibrational energy     226353.8 (Joules/Mol)
                                   54.09986 (Kcal/Mol)
 Warning -- explicit consideration of   7 degrees of freedom as
           vibrations may cause significant error
 Vibrational temperatures:    206.62   247.25   508.88   564.42   643.64
          (Kelvin)            778.61   805.61   959.13  1022.04  1095.42
                             1178.81  1208.63  1416.92  1432.62  1459.89
                             1547.16  1586.80  1599.70  1771.12  1858.73
                             1938.39  2065.05  2128.38  2252.88  2293.06
                             3402.62  4595.23  4598.88  4640.75  4640.91

 Zero-point correction=                           0.086214 (Hartree/Particle)
 Thermal correction to Energy=                    0.092334
 Thermal correction to Enthalpy=                  0.093278
 Thermal correction to Gibbs Free Energy=         0.055894
 Sum of electronic and zero-point Energies=           -356.812436
 Sum of electronic and thermal Energies=              -356.806316
 Sum of electronic and thermal Enthalpies=            -356.805372
 Sum of electronic and thermal Free Energies=         -356.842756

                     E (Thermal)             CV                S
                      KCal/Mol        Cal/Mol-Kelvin    Cal/Mol-Kelvin
 Total                   57.940             22.815             78.682
 Electronic               0.000              0.000              0.000
 Translational            0.889              2.981             39.893
 Rotational               0.889              2.981             27.729
 Vibrational             56.163             16.853             11.060
 Vibration     1          0.616              1.910              2.755
 Vibration     2          0.626              1.877              2.415
 Vibration     3          0.730              1.568              1.150
 Vibration     4          0.760              1.487              0.991
 Vibration     5          0.806              1.367              0.804
 Vibration     6          0.896              1.159              0.563
 Vibration     7          0.916              1.118              0.524

 Optimization completed.
    -- Stationary point found.
 Normal termination of Gaussian 09 at Tue Mar  6 10:02:07 2018.
