 Gaussian 09, Revision B.01,
 Gaussian 09:  EM64L-G09RevB.01 12-Aug-2010

 -------------------------------------------------
 #p Temperature=298.15 opt freq UB3LYP/aug-cc-pVDZ
 -------------------------------------------------

 -------------------------------------------
 Pyrimidine-5-N2+-UB3LYP-aug-cc-pVDZ-Triplet
 -------------------------------------------
 Symbolic Z-matrix:
 Charge =  1 Multiplicity = 3

 SCF Done:  E(UB3LYP) =  -372.820024134     A.U. after   26 cycles
 SCF Done:  E(UB3LYP) =  -372.847719784     A.U. after   18 cycles
 SCF Done:  E(UB3LYP) =  -372.854007203     A.U. after   18 cycles
 SCF Done:  E(UB3LYP) =  -372.854152621     A.U. after   19 cycles
 SCF Done:  E(UB3LYP) =  -372.854158363     A.U. after   13 cycles
 Optimization completed.
    -- Stationary point found.
 Normal termination of Gaussian 09 at Fri Jan 21 12:02:38 2005.

 ----------------------------------------------------------------------
 #P Geom=AllCheck Guess=TCheck SCRF=Check GenChk UB3LYP/Aug-CC-pVDZ Fre
 q
 ----------------------------------------------------------------------

 Pyrimidine-5-N2+-UB3LYP-aug-cc-pVDZ-Triplet
 -------------------------------------------
 Redundant internal coordinates taken from checkpoint file:
 Pyrimidine-5-N2+-UB3LYP-aug-cc-pVDZ-Triplet.chk
 Charge =  1 Multiplicity = 3

                         Standard orientation:
 ---------------------------------------------------------------------
 Center     Atomic      Atomic             Coordinates (Angstroms)
 Number     Number       Type             X           Y           Z
 ---------------------------------------------------------------------
      1          6           0       -0.176097   -1.210880    0.000036
      2          6           0        0.606659    0.000047   -0.000015
      3          6           0       -0.176114    1.210958    0.000055
      4          6           0       -2.220748    0.000024   -0.000075
      5          1           0        0.279175   -2.204803    0.000134
      6          7           0        1.938843    0.000013    0.000318
      7          7           0        3.083033   -0.000036   -0.000289
      8          1           0       -3.304036   -0.000036   -0.000139
      9          1           0        0.279051    2.204979    0.000149
     10          7           0       -1.472122    1.116181   -0.000036
     11          7           0       -1.472096   -1.116305   -0.000015
 ---------------------------------------------------------------------

 SCF Done:  E(UB3LYP) =  -372.854158362     A.U. after    1 cycles

 The electronic state is 3-A.
 Alpha  occ. eigenvalues --  -14.68240 -14.65115 -14.62261 -14.62258 -10.50094
 Alpha  occ. eigenvalues --  -10.49053 -10.48356 -10.48354  -1.33390  -1.25496
 Alpha  occ. eigenvalues --   -1.15256  -1.10428  -0.98671  -0.90324  -0.85243
 Alpha  occ. eigenvalues --   -0.78673  -0.77186  -0.71677  -0.68590  -0.67928
 Alpha  occ. eigenvalues --   -0.67156  -0.66898  -0.65357  -0.57928  -0.57688
 Alpha  occ. eigenvalues --   -0.53072  -0.50870  -0.38075
 Alpha virt. eigenvalues --   -0.28015  -0.27364  -0.23247  -0.15370  -0.12256
 Alpha virt. eigenvalues --   -0.12209  -0.11853  -0.11243  -0.09962  -0.08747
 Alpha virt. eigenvalues --   -0.08543  -0.06112  -0.05937  -0.05224  -0.04525

  Beta  occ. eigenvalues --  -14.68188 -14.64150 -14.61361 -14.61360 -10.49866
  Beta  occ. eigenvalues --  -10.48452 -10.48133 -10.48131  -1.32389  -1.23638
  Beta  occ. eigenvalues --   -1.13107  -1.09151  -0.97305  -0.89100  -0.83879
  Beta  occ. eigenvalues --   -0.77685  -0.75913  -0.69410  -0.67670  -0.66957
  Beta  occ. eigenvalues --   -0.65266  -0.64883  -0.63855  -0.56299  -0.51911
  Beta  occ. eigenvalues --   -0.50292
  Beta virt. eigenvalues --   -0.39460  -0.29822  -0.26731  -0.26139  -0.19388
  Beta virt. eigenvalues --   -0.15235  -0.12081  -0.11702  -0.11275  -0.10968
  Beta virt. eigenvalues --   -0.09722  -0.08131  -0.07613  -0.05777  -0.05652

 Mulliken atomic charges:
              1
     1  C    0.733584
     2  C    0.806286
     3  C    0.733374
     4  C    0.539509
     5  H   -0.527269
     6  N    0.379592
     7  N   -0.547511
     8  H   -0.296200
     9  H   -0.527162
    10  N   -0.146960
    11  N   -0.147243
 Sum of Mulliken atomic charges =   1.00000

 Dipole moment (field-independent basis, Debye):
    X=             -0.8718    Y=              0.0004    Z=              0.0004  Tot=              0.8718
 Quadrupole moment (field-independent basis, Debye-Ang):
   XX=            -27.8104   YY=            -32.9565   ZZ=            -43.2435
   XY=             -0.0008   XZ=              0.0010   YZ=              0.0001

  Exact polarizability: 134.427  -0.003  86.266  -0.001   0.000  36.931
 Approx polarizability: 278.210  -0.002 186.655  -0.003   0.000  56.074

                     1                      2                      3
                     A                      A                      A
 Frequencies --   134.1223               168.2536               228.6730
 Red. masses --     4.6428                 8.1861                 8.7710
 Frc consts  --     0.0492                 0.1365                 0.2702
 IR Inten    --     1.4038                 3.0519                 0.0439

                     4                      5                      6
                     A                      A                      A
 Frequencies --   396.1581               478.4084               480.5678
 Red. masses --     4.2446                 5.7452                 8.8076
 Frc consts  --     0.3925                 0.7747                 1.1984
 IR Inten    --     3.6291                 0.0000                 6.0186

                     7                      8                      9
                     A                      A                      A
 Frequencies --   510.8470               539.4930               569.7012
 Red. masses --     8.2631                 9.3345                 3.4562
 Frc consts  --     1.2705                 1.6007                 0.6609
 IR Inten    --     4.2893               120.7611                38.2936

                    10                     11                     12
                     A                      A                      A
 Frequencies --   743.9689               751.2525               843.1560
 Red. masses --     1.2512                11.4476                 1.7060
 Frc consts  --     0.4080                 3.8066                 0.7146
 IR Inten    --    24.0813                16.4617                19.1450

                    13                     14                     15
                     A                      A                      A
 Frequencies --   847.7410               955.6219              1010.7910
 Red. masses --     1.2766                 3.8578                 5.8722
 Frc consts  --     0.5406                 2.0757                 3.5349
 IR Inten    --     0.0001                 2.7095                13.7338

                    16                     17                     18
                     A                      A                      A
 Frequencies --  1127.1846              1229.6492              1249.9417
 Red. masses --     3.3119                 1.3827                 2.6228
 Frc consts  --     2.4792                 1.2318                 2.4143
 IR Inten    --     5.0024                54.8925                 5.2389

                    19                     20                     21
                     A                      A                      A
 Frequencies --  1286.2647              1309.6440              1412.7231
 Red. masses --     2.9364                 1.5948                 2.8404
 Frc consts  --     2.8624                 1.6116                 3.3400
 IR Inten    --     3.9878                15.1988                11.7506

                    22                     23                     24
                     A                      A                      A
 Frequencies --  1500.6531              1580.1893              2129.8775
 Red. masses --     4.1494                10.0923                13.8122
 Frc consts  --     5.5055                14.8477                36.9167
 IR Inten    --    31.5828                83.8335               389.2973

                    25                     26                     27
                     A                      A                      A
 Frequencies --  3169.9049              3171.1893              3287.7575
 Red. masses --     1.0897                 1.0916                 1.0989
 Frc consts  --     6.4512                 6.4678                 6.9985
 IR Inten    --    72.4721                10.3615                72.8164

 - Thermochemistry -
 -------------------
 Temperature   298.150 Kelvin.  Pressure   1.00000 Atm.
 Atom     1 has atomic number  6 and mass  12.00000

 Molecular mass:   107.03577 amu.
 Principal axes and moments of inertia in atomic units:
                           1         2         3
     Eigenvalues --   285.280271149.392661434.67290
           X            1.00000   0.00000   0.00000
           Y            0.00000   1.00000   0.00000
           Z            0.00000   0.00000   1.00000
 This molecule is an asymmetric top.
 Rotational symmetry number  1.
 Rotational temperatures (Kelvin)      0.30361     0.07536     0.06037
 Rotational constants (GHZ):           6.32620     1.57017     1.25795
 Zero-point vibrational energy     186101.5 (Joules/Mol)
                                   44.47932 (Kcal/Mol)
 Warning -- explicit consideration of   9 degrees of freedom as
           vibrations may cause significant error
 Vibrational temperatures:    192.97   242.08   329.01   569.98   688.32
          (Kelvin)            691.43   734.99   776.21   819.67  1070.40
                             1080.88  1213.11  1219.71  1374.92  1454.30
                             1621.77  1769.19  1798.39  1850.65  1884.28
                             2032.59  2159.10  2273.54  3064.41  4560.78
                             4562.63  4730.34

 Zero-point correction=                           0.070882 (Hartree/Particle)
 Thermal correction to Energy=                    0.077389
 Thermal correction to Enthalpy=                  0.078333
 Thermal correction to Gibbs Free Energy=         0.039203
 Sum of electronic and zero-point Energies=           -372.783276
 Sum of electronic and thermal Energies=              -372.776769
 Sum of electronic and thermal Enthalpies=            -372.775825
 Sum of electronic and thermal Free Energies=         -372.814956

                     E (Thermal)             CV                S
                      KCal/Mol        Cal/Mol-Kelvin    Cal/Mol-Kelvin
 Total                   48.562             23.704             82.357
 Electronic               0.000              0.000              2.183
 Translational            0.889              2.981             39.921
 Rotational               0.889              2.981             27.644
 Vibrational             46.785             17.743             12.609
 Vibration     1          0.613              1.919              2.886
 Vibration     2          0.625              1.882              2.455
 Vibration     3          0.651              1.797              1.889
 Vibration     4          0.763              1.478              0.977
 Vibration     5          0.835              1.298              0.714
 Vibration     6          0.837              1.293              0.709
 Vibration     7          0.866              1.226              0.632
 Vibration     8          0.895              1.163              0.566
 Vibration     9          0.926              1.097              0.505

 Optimization completed.
    -- Stationary point found.
 Normal termination of Gaussian 09 at Fri Jan 21 12:08:03 2005.
