 Gaussian 09, Revision B.01,
 Gaussian 09:  EM64L-G09RevB.01 12-Aug-2010

 -------------------------------------------------
 #p Temperature=298.15 opt freq UB3LYP/aug-cc-pVDZ
 -------------------------------------------------

 ------------------------------------
 Pyridine-2-UB3LYP-aug-cc-pVDZ-Duplet
 ------------------------------------
 Symbolic Z-matrix:
 Charge =  0 Multiplicity = 2

 SCF Done:  E(UB3LYP) =  -247.620294951     A.U. after   17 cycles
 SCF Done:  E(UB3LYP) =  -247.635222722     A.U. after   18 cycles
 SCF Done:  E(UB3LYP) =  -247.635898126     A.U. after   17 cycles
 SCF Done:  E(UB3LYP) =  -247.635963905     A.U. after   15 cycles
 SCF Done:  E(UB3LYP) =  -247.635969979     A.U. after   18 cycles
 SCF Done:  E(UB3LYP) =  -247.635971388     A.U. after   11 cycles
 Optimization completed.
    -- Stationary point found.
 Normal termination of Gaussian 09 at Tue Mar  6 15:02:39 2018.

 ----------------------------------------------------------------------
 #P Geom=AllCheck Guess=TCheck SCRF=Check GenChk UB3LYP/Aug-CC-pVDZ Fre
 q
 ----------------------------------------------------------------------

 Pyridine-2-UB3LYP-aug-cc-pVDZ-Duplet
 ------------------------------------
 Redundant internal coordinates taken from checkpoint file:
 Pyridine-2-UB3LYP-aug-cc-pVDZ-Duplet.chk
 Charge =  0 Multiplicity = 2

                         Standard orientation:
 ---------------------------------------------------------------------
 Center     Atomic      Atomic             Coordinates (Angstroms)
 Number     Number       Type             X           Y           Z
 ---------------------------------------------------------------------
      1          6           0       -0.242773   -1.357986    0.000021
      2          6           0       -1.338783   -0.492366   -0.000047
      3          6           0       -1.022643    0.869805    0.000031
      4          1           0       -1.819079    1.616728   -0.000030
      5          1           0       -2.367209   -0.849693   -0.000014
      6          6           0        0.322569    1.269481    0.000008
      7          1           0        0.593257    2.325142    0.000140
      8          6           0        1.317700    0.294059   -0.000082
      9          1           0        2.377659    0.552552   -0.000007
     10          7           0        0.999850   -1.020384    0.000046
 ---------------------------------------------------------------------

 SCF Done:  E(UB3LYP) =  -247.635971388     A.U. after    1 cycles

 The electronic state is 2-A.
 Alpha  occ. eigenvalues --  -14.35699 -10.24628 -10.24108 -10.22656 -10.21968
 Alpha  occ. eigenvalues --  -10.21315  -0.97234  -0.82304  -0.77753  -0.65236
 Alpha  occ. eigenvalues --   -0.63258  -0.53477  -0.49929  -0.47531  -0.42836
 Alpha  occ. eigenvalues --   -0.42053  -0.41177  -0.32677  -0.30820  -0.28083
 Alpha  occ. eigenvalues --   -0.22559
 Alpha virt. eigenvalues --   -0.05037  -0.03179  -0.01292   0.00478   0.01408
 Alpha virt. eigenvalues --    0.03291   0.04639   0.04650   0.05735   0.07632
 Alpha virt. eigenvalues --    0.08061   0.08134   0.08647   0.09155   0.09509

  Beta  occ. eigenvalues --  -14.35347 -10.24440 -10.22722 -10.22580 -10.21831
  Beta  occ. eigenvalues --  -10.21351  -0.96430  -0.81971  -0.76848  -0.64697
  Beta  occ. eigenvalues --   -0.62122  -0.52756  -0.49265  -0.46976  -0.42177
  Beta  occ. eigenvalues --   -0.41580  -0.40392  -0.30684  -0.29718  -0.27562
  Beta virt. eigenvalues --   -0.08463  -0.04859  -0.02212  -0.01274   0.00493
  Beta virt. eigenvalues --    0.01510   0.03382   0.04644   0.04962   0.05791
  Beta virt. eigenvalues --    0.07636   0.08168   0.08233   0.08681   0.09230

 Mulliken atomic charges:
              1
     1  C   -0.709474
     2  C    1.266771
     3  C    0.557457
     4  H   -0.656716
     5  H   -0.590649
     6  C    1.462919
     7  H   -0.675667
     8  C    0.043291
     9  H   -0.573340
    10  N   -0.124592
 Sum of Mulliken atomic charges =   0.00000

 Dipole moment (field-independent basis, Debye):
    X=             -1.1000    Y=              2.6184    Z=              0.0000  Tot=              2.8401
 Quadrupole moment (field-independent basis, Debye-Ang):
   XX=            -31.3382   YY=            -36.0030   ZZ=            -37.2410
   XY=              2.3773   XZ=              0.0000   YZ=              0.0004

  Exact polarizability:  77.096   3.020  72.849   0.000   0.000  40.199
 Approx polarizability: 131.846   4.481 121.187  -0.001   0.000  59.696

                     1                      2                      3
                     A                      A                      A
 Frequencies --   384.7216               423.6641               573.3074
 Red. masses --     3.0109                 4.2181                 8.4562
 Frc consts  --     0.2626                 0.4461                 1.6376
 IR Inten    --     6.1912                 0.0626                12.9149

                     4                      5                      6
                     A                      A                      A
 Frequencies --   657.2813               708.1332               744.9166
 Red. masses --     7.1250                 4.2784                 1.1939
 Frc consts  --     1.8136                 1.2641                 0.3903
 IR Inten    --     0.9814                 6.6047                52.9296

                     7                      8                      9
                     A                      A                      A
 Frequencies --   883.1002               946.6561               964.7225
 Red. masses --     1.2554                 7.1404                 1.3925
 Frc consts  --     0.5768                 3.7701                 0.7636
 IR Inten    --     0.1323                21.1455                 0.1975

                    10                     11                     12
                     A                      A                      A
 Frequencies --   996.6114              1035.8924              1070.6238
 Red. masses --     1.3511                 5.3507                 1.8268
 Frc consts  --     0.7907                 3.3829                 1.2337
 IR Inten    --     0.0487                 0.2267                11.2920

                    13                     14                     15
                     A                      A                      A
 Frequencies --  1104.1948              1156.3708              1260.9636
 Red. masses --     1.6957                 1.1261                 1.8539
 Frc consts  --     1.2181                 0.8872                 1.7367
 IR Inten    --     0.0770                 1.9158                 2.9173

                    16                     17                     18
                     A                      A                      A
 Frequencies --  1334.8069              1412.8905              1490.0379
 Red. masses --     2.5823                 2.0378                 2.3652
 Frc consts  --     2.7108                 2.3967                 3.0939
 IR Inten    --     2.9655                16.7355                 1.6139

                    19                     20                     21
                     A                      A                      A
 Frequencies --  1569.0150              1661.2833              3172.1686
 Red. masses --     4.5903                 9.1659                 1.0872
 Frc consts  --     6.6580                14.9044                 6.4459
 IR Inten    --    19.6188                41.3988                 3.0828

                    22                     23                     24
                     A                      A                      A
 Frequencies --  3181.8684              3203.7662              3211.2799
 Red. masses --     1.0903                 1.0961                 1.0952
 Frc consts  --     6.5036                 6.6284                 6.6542
 IR Inten    --    12.2961                13.3486                 4.3243

 - Thermochemistry -
 -------------------
 Temperature   298.150 Kelvin.  Pressure   1.00000 Atm.
 Atom     1 has atomic number  6 and mass  12.00000

 Molecular mass:    78.03437 amu.
 Principal axes and moments of inertia in atomic units:
                           1         2         3
     Eigenvalues --   277.37370 307.88250 585.25620
           X            0.97921   0.20284   0.00000
           Y           -0.20284   0.97921   0.00000
           Z            0.00000   0.00000   1.00000
 This molecule is an asymmetric top.
 Rotational symmetry number  1.
 Rotational temperatures (Kelvin)      0.31226     0.28132     0.14799
 Rotational constants (GHZ):           6.50653     5.86179     3.08368
 Zero-point vibrational energy     198270.7 (Joules/Mol)
                                   47.38784 (Kcal/Mol)
 Warning -- explicit consideration of   3 degrees of freedom as
           vibrations may cause significant error
 Vibrational temperatures:    553.53   609.56   824.86   945.68  1018.84
          (Kelvin)           1071.77  1270.58  1362.03  1388.02  1433.90
                             1490.42  1540.39  1588.69  1663.76  1814.24
                             1920.49  2032.83  2143.83  2257.46  2390.21
                             4564.04  4577.99  4609.50  4620.31

 Zero-point correction=                           0.075517 (Hartree/Particle)
 Thermal correction to Energy=                    0.079801
 Thermal correction to Enthalpy=                  0.080745
 Thermal correction to Gibbs Free Energy=         0.047526
 Sum of electronic and zero-point Energies=           -247.560454
 Sum of electronic and thermal Energies=              -247.556170
 Sum of electronic and thermal Enthalpies=            -247.555226
 Sum of electronic and thermal Free Energies=         -247.588445

                     E (Thermal)             CV                S
                      KCal/Mol        Cal/Mol-Kelvin    Cal/Mol-Kelvin
 Total                   50.076             15.944             69.915
 Electronic               0.000              0.000              1.377
 Translational            0.889              2.981             38.979
 Rotational               0.889              2.981             25.417
 Vibrational             48.298              9.982              4.142
 Vibration     1          0.754              1.503              1.021
 Vibration     2          0.786              1.419              0.880
 Vibration     3          0.930              1.089              0.498

 Optimization completed.
    -- Stationary point found.
 Normal termination of Gaussian 09 at Tue Mar  6 15:05:07 2018.
