 Gaussian 09, Revision B.01,
 Gaussian 09:  EM64L-G09RevB.01 12-Aug-2010

 -------------------------------------------------
 #p Temperature=298.15 opt freq UB3LYP/aug-cc-pVDZ
 -------------------------------------------------

 ----------------------------------------
 Pyrimidine-2+-UB3LYP-aug-cc-pVDZ-Triplet
 ----------------------------------------
 Symbolic Z-matrix:
 Charge =  1 Multiplicity = 3

 SCF Done:  E(UB3LYP) =  -263.289358839     A.U. after   20 cycles
 SCF Done:  E(UB3LYP) =  -263.321542745     A.U. after   17 cycles
 SCF Done:  E(UB3LYP) =  -263.326949645     A.U. after   16 cycles
 SCF Done:  E(UB3LYP) =  -263.327278388     A.U. after   17 cycles
 SCF Done:  E(UB3LYP) =  -263.327377239     A.U. after   17 cycles
 SCF Done:  E(UB3LYP) =  -263.327384444     A.U. after   12 cycles
 Optimization completed.
    -- Stationary point found.
 Normal termination of Gaussian 09 at Fri Jan 21 11:19:25 2005.

 ----------------------------------------------------------------------
 #P Geom=AllCheck Guess=TCheck SCRF=Check GenChk UB3LYP/Aug-CC-pVDZ Fre
 q
 ----------------------------------------------------------------------

 Pyrimidine-2+-UB3LYP-aug-cc-pVDZ-Triplet
 ----------------------------------------
 Redundant internal coordinates taken from checkpoint file:
 Pyrimidine-2+-UB3LYP-aug-cc-pVDZ-Triplet.chk
 Charge =  1 Multiplicity = 3

                         Standard orientation:
 ---------------------------------------------------------------------
 Center     Atomic      Atomic             Coordinates (Angstroms)
 Number     Number       Type             X           Y           Z
 ---------------------------------------------------------------------
      1          6           0       -0.000304   -1.443689   -0.000525
      2          6           0        0.000234    1.315945   -0.000519
      3          1           0        0.000235    2.405501   -0.000424
      4          6           0       -1.189661    0.572769    0.000172
      5          1           0       -2.184974    1.025410    0.000825
      6          7           0       -1.098395   -0.754074    0.000213
      7          6           0        1.189925    0.572167    0.000165
      8          1           0        2.185111    1.025154    0.000825
      9          7           0        1.098177   -0.754386    0.000219
 ---------------------------------------------------------------------

 SCF Done:  E(UB3LYP) =  -263.327384444     A.U. after    1 cycles

 The electronic state is 3-A.
 Alpha  occ. eigenvalues --  -14.65895 -14.65891 -10.53926 -10.50704 -10.50702
 Alpha  occ. eigenvalues --  -10.46098  -1.29406  -1.18120  -1.06288  -0.93462
 Alpha  occ. eigenvalues --   -0.92683  -0.79318  -0.78381  -0.70661  -0.69799
 Alpha  occ. eigenvalues --   -0.68883  -0.64987  -0.59655  -0.54956  -0.54049
 Alpha  occ. eigenvalues --   -0.51367
 Alpha virt. eigenvalues --   -0.30477  -0.28081  -0.15783  -0.13400  -0.12906
 Alpha virt. eigenvalues --   -0.12410  -0.10766  -0.10054  -0.09599  -0.07996
 Alpha virt. eigenvalues --   -0.06134  -0.05842  -0.04946  -0.04362  -0.03514

  Beta  occ. eigenvalues --  -14.64419 -14.64416 -10.52357 -10.50625 -10.50622
  Beta  occ. eigenvalues --  -10.45970  -1.27091  -1.15273  -1.05206  -0.91734
  Beta  occ. eigenvalues --   -0.90760  -0.77808  -0.76314  -0.69376  -0.68236
  Beta  occ. eigenvalues --   -0.66871  -0.58388  -0.57473  -0.53451
  Beta virt. eigenvalues --   -0.41372  -0.34130  -0.29823  -0.26416  -0.15666
  Beta virt. eigenvalues --   -0.12768  -0.12135  -0.12098  -0.10657  -0.09622
  Beta virt. eigenvalues --   -0.09133  -0.07455  -0.06137  -0.05691  -0.04693

 Mulliken atomic charges:
              1
     1  C   -0.068489
     2  C    1.399484
     3  H   -0.520472
     4  C    0.500002
     5  H   -0.406536
     6  N    0.001232
     7  C    0.499490
     8  H   -0.406010
     9  N    0.001299
 Sum of Mulliken atomic charges =   1.00000

 Dipole moment (field-independent basis, Debye):
    X=              0.0009    Y=              2.5980    Z=              0.0008  Tot=              2.5980
 Quadrupole moment (field-independent basis, Debye-Ang):
   XX=            -20.9021   YY=            -23.0443   ZZ=            -32.2772
   XY=              0.0001   XZ=              0.0000   YZ=              0.0013

  Exact polarizability:  68.470   0.002  59.267   0.000   0.001  29.596
 Approx polarizability: 147.826   0.001 107.329   0.000   0.001  44.194

                     1                      2                      3
                     A                      A                      A
 Frequencies --   410.7778               426.8069               540.4979
 Red. masses --     3.9857                 4.5541                 3.3695
 Frc consts  --     0.3963                 0.4888                 0.5800
 IR Inten    --     0.3591                 0.0000                29.7827

                     4                      5                      6
                     A                      A                      A
 Frequencies --   624.7104               654.6025               817.5058
 Red. masses --     8.7899                 8.6008                 1.2633
 Frc consts  --     2.0211                 2.1714                 0.4974
 IR Inten    --    50.6479                 1.0093                40.9935

                     7                      8                      9
                     A                      A                      A
 Frequencies --   924.4207               928.3271               989.2633
 Red. masses --     7.9347                 1.3583                 1.4881
 Frc consts  --     3.9950                 0.6897                 0.8581
 IR Inten    --     0.1334                 0.0000                 0.1943

                    10                     11                     12
                     A                      A                      A
 Frequencies --  1057.8258              1104.6517              1154.5412
 Red. masses --     3.1600                 1.4525                 2.0622
 Frc consts  --     2.0834                 1.0443                 1.6196
 IR Inten    --     0.0327                 0.8928                12.9660

                    13                     14                     15
                     A                      A                      A
 Frequencies --  1196.2320              1282.7009              1400.2185
 Red. masses --     1.6507                 5.0819                 1.9986
 Frc consts  --     1.3917                 4.9264                 2.3087
 IR Inten    --    15.7250               124.4570                25.6207

                    16                     17                     18
                     A                      A                      A
 Frequencies --  1440.0781              1609.0246              1610.1576
 Red. masses --     2.5696                 7.5548                12.4920
 Frc consts  --     3.1397                11.5238                19.0817
 IR Inten    --    36.1783                 3.2093                26.9072

                    19                     20                     21
                     A                      A                      A
 Frequencies --  3180.5062              3182.7141              3229.5567
 Red. masses --     1.0914                 1.0934                 1.0980
 Frc consts  --     6.5045                 6.5254                 6.7477
 IR Inten    --     7.7717                77.8303                27.2127

 - Thermochemistry -
 -------------------
 Temperature   298.150 Kelvin.  Pressure   1.00000 Atm.
 Atom     1 has atomic number  6 and mass  12.00000

 Molecular mass:    79.02962 amu.
 Principal axes and moments of inertia in atomic units:
                           1         2         3
     Eigenvalues --   276.01131 276.32913 552.34037
           X            1.00000   0.00188   0.00000
           Y           -0.00188   1.00000   0.00001
           Z            0.00000  -0.00001   1.00000
 This molecule is an asymmetric top.
 Rotational symmetry number  1.
 Rotational temperatures (Kelvin)      0.31381     0.31344     0.15681
 Rotational constants (GHZ):           6.53865     6.53113     3.26744
 Zero-point vibrational energy     166072.3 (Joules/Mol)
                                   39.69223 (Kcal/Mol)
 Warning -- explicit consideration of   3 degrees of freedom as
           vibrations may cause significant error
 Vibrational temperatures:    591.02   614.08   777.66   898.82   941.83
          (Kelvin)           1176.21  1330.03  1335.65  1423.33  1521.97
                             1589.35  1661.13  1721.11  1845.52  2014.60
                             2071.95  2315.02  2316.65  4576.03  4579.21
                             4646.61

 Zero-point correction=                           0.063254 (Hartree/Particle)
 Thermal correction to Energy=                    0.067477
 Thermal correction to Enthalpy=                  0.068421
 Thermal correction to Gibbs Free Energy=         0.034960
 Sum of electronic and zero-point Energies=           -263.264131
 Sum of electronic and thermal Energies=              -263.259908
 Sum of electronic and thermal Enthalpies=            -263.258963
 Sum of electronic and thermal Free Energies=         -263.292424

                     E (Thermal)             CV                S
                      KCal/Mol        Cal/Mol-Kelvin    Cal/Mol-Kelvin
 Total                   42.342             15.315             70.424
 Electronic               0.000              0.000              2.183
 Translational            0.889              2.981             39.017
 Rotational               0.889              2.981             25.247
 Vibrational             40.565              9.354              3.978
 Vibration     1          0.775              1.447              0.924
 Vibration     2          0.788              1.412              0.869
 Vibration     3          0.896              1.161              0.564

 Optimization completed.
    -- Stationary point found.
 Normal termination of Gaussian 09 at Fri Jan 21 11:21:21 2005.
