 Gaussian 09, Revision B.01,
 Gaussian 09:  EM64L-G09RevB.01 12-Aug-2010

 -------------------------------------------------
 #p Temperature=298.15 opt freq UB3LYP/aug-cc-pVDZ
 -------------------------------------------------

 ---------------------------------------------------
 Continue/Pyrimidine-4-N2-UB3LYP-aug-cc-pVDZ-Doublet
 ---------------------------------------------------
 Symbolic Z-matrix:
 Charge =  0 Multiplicity = 2

 SCF Done:  E(UB3LYP) =  -373.063949735     A.U. after   24 cycles
 SCF Done:  E(UB3LYP) =  -373.122862590     A.U. after   19 cycles
 SCF Done:  E(UB3LYP) =  -373.166243052     A.U. after   21 cycles
 SCF Done:  E(UB3LYP) =  -373.185187595     A.U. after   20 cycles
 SCF Done:  E(UB3LYP) =  -373.189896340     A.U. after   23 cycles
 SCF Done:  E(UB3LYP) =  -373.203666662     A.U. after   20 cycles
 SCF Done:  E(UB3LYP) =  -373.206418640     A.U. after   18 cycles
 SCF Done:  E(UB3LYP) =  -373.208063055     A.U. after   20 cycles
 SCF Done:  E(UB3LYP) =  -373.208252150     A.U. after   17 cycles
 SCF Done:  E(UB3LYP) =  -373.208307725     A.U. after   16 cycles
 SCF Done:  E(UB3LYP) =  -373.208318212     A.U. after   16 cycles
 SCF Done:  E(UB3LYP) =  -373.208320431     A.U. after   13 cycles
 SCF Done:  E(UB3LYP) =  -373.208320923     A.U. after   12 cycles
 Optimization completed.
    -- Stationary point found.
 Normal termination of Gaussian 09 at Tue Feb 22 03:50:01 2005.

 ----------------------------------------------------------------------
 #P Geom=AllCheck Guess=TCheck SCRF=Check GenChk UB3LYP/Aug-CC-pVDZ Fre
 q
 ----------------------------------------------------------------------

 Continue/Pyrimidine-4-N2-UB3LYP-aug-cc-pVDZ-Doublet
 ---------------------------------------------------
 Redundant internal coordinates taken from checkpoint file:
 /home/ubuntu/g09/Gau-15429.chk
 Charge =  0 Multiplicity = 2

                         Standard orientation:
 ---------------------------------------------------------------------
 Center     Atomic      Atomic             Coordinates (Angstroms)
 Number     Number       Type             X           Y           Z
 ---------------------------------------------------------------------
      1          6           0       -1.206591   -1.248012   -0.018396
      2          6           0        0.546915    0.168230   -0.066963
      3          6           0       -0.301234    1.270830   -0.015812
      4          6           0       -1.663513    0.977322    0.062070
      5          1           0       -1.573764   -2.275121   -0.034391
      6          7           0        1.990161    0.430208   -0.171424
      7          7           0        2.820987   -0.317104    0.214557
      8          1           0       -2.407005    1.775113    0.122080
      9          1           0        0.083657    2.288698   -0.033858
     10          7           0       -2.126945   -0.279758    0.058049
     11          7           0        0.122032   -1.090334   -0.075356
 ---------------------------------------------------------------------

 SCF Done:  E(UB3LYP) =  -373.208320923     A.U. after    1 cycles

 The electronic state is 2-A.
 Alpha  occ. eigenvalues --  -14.43431 -14.42004 -14.37341 -14.36910 -10.30904
 Alpha  occ. eigenvalues --  -10.28617 -10.27149 -10.24124  -1.09497  -1.02198
 Alpha  occ. eigenvalues --   -0.92817  -0.84066  -0.74240  -0.69530  -0.63046
 Alpha  occ. eigenvalues --   -0.56213  -0.51955  -0.50096  -0.48523  -0.47402
 Alpha  occ. eigenvalues --   -0.44865  -0.43471  -0.42336  -0.34671  -0.33690
 Alpha  occ. eigenvalues --   -0.31912  -0.29211  -0.22624
 Alpha virt. eigenvalues --   -0.10474  -0.06783  -0.02882  -0.01439   0.00628
 Alpha virt. eigenvalues --    0.01381   0.03307   0.03576   0.04976   0.05422
 Alpha virt. eigenvalues --    0.06305   0.07232   0.07945   0.08386   0.08474

  Beta  occ. eigenvalues --  -14.43106 -14.40435 -14.37348 -14.36929 -10.30494
  Beta  occ. eigenvalues --  -10.28594 -10.27136 -10.24146  -1.07798  -1.02017
  Beta  occ. eigenvalues --   -0.92646  -0.83681  -0.72936  -0.69414  -0.62241
  Beta  occ. eigenvalues --   -0.55879  -0.51189  -0.49620  -0.47607  -0.45362
  Beta  occ. eigenvalues --   -0.43858  -0.42795  -0.39335  -0.34416  -0.33663
  Beta  occ. eigenvalues --   -0.31694  -0.29110
  Beta virt. eigenvalues --   -0.09821  -0.08412  -0.06694  -0.02189  -0.01315
  Beta virt. eigenvalues --    0.00629   0.01447   0.03322   0.03572   0.05026
  Beta virt. eigenvalues --    0.05482   0.06331   0.07318   0.08008   0.08468

 Mulliken atomic charges:
              1
     1  C    0.547437
     2  C   -0.114519
     3  C    1.878499
     4  C    0.144586
     5  H   -0.459905
     6  N    0.019339
     7  N   -0.493321
     8  H   -0.523358
     9  H   -0.650271
    10  N   -0.220991
    11  N   -0.127496
 Sum of Mulliken atomic charges =   0.00000

 Dipole moment (field-independent basis, Debye):
    X=             -1.9215    Y=              2.1099    Z=             -0.0603  Tot=              2.8544
 Quadrupole moment (field-independent basis, Debye-Ang):
   XX=            -55.2635   YY=            -41.1071   ZZ=            -45.5807
   XY=              0.2325   XZ=             -0.2311   YZ=              0.6511

  Exact polarizability: 100.757  -2.721  78.520   0.479  -0.784  43.665
 Approx polarizability: 158.482  -9.441 134.425   1.354  -2.513  68.185

                     1                      2                      3
                     A                      A                      A
 Frequencies --    56.8835               182.7189               263.7646
 Red. masses --    11.1610                 9.5073                 8.4638
 Frc consts  --     0.0213                 0.1870                 0.3469
 IR Inten    --     1.5429                 2.7676                 3.0126

                     4                      5                      6
                     A                      A                      A
 Frequencies --   377.0147               423.3276               504.3527
 Red. masses --     2.9795                 8.6611                 5.0192
 Frc consts  --     0.2495                 0.9145                 0.7522
 IR Inten    --     2.5843                 0.4251                 3.3981

                     7                      8                      9
                     A                      A                      A
 Frequencies --   609.3170               678.4324               765.5703
 Red. masses --     5.7075                 8.1130                 7.4456
 Frc consts  --     1.2485                 2.2001                 2.5711
 IR Inten    --    14.6233                 6.5871                19.2730

                    10                     11                     12
                     A                      A                      A
 Frequencies --   785.4504               853.7239               981.4181
 Red. masses --     4.5105                 1.3736                 1.4179
 Frc consts  --     1.6395                 0.5899                 0.8046
 IR Inten    --     8.1735                30.0294                 0.3673

                    13                     14                     15
                     A                      A                      A
 Frequencies --  1005.6832              1019.3245              1078.1500
 Red. masses --     9.7637                 1.4815                 1.4986
 Frc consts  --     5.8182                 0.9069                 1.0264
 IR Inten    --     5.1802                 0.0945                 1.6788

                    16                     17                     18
                     A                      A                      A
 Frequencies --  1145.6698              1186.8161              1261.3135
 Red. masses --     7.1200                 1.9624                 8.3272
 Frc consts  --     5.5062                 1.6286                 7.8054
 IR Inten    --     4.8974                 4.0552                 3.0053

                    19                     20                     21
                     A                      A                      A
 Frequencies --  1321.4485              1407.1185              1467.7054
 Red. masses --     1.7957                 1.7596                 1.9583
 Frc consts  --     1.8475                 2.0527                 2.4855
 IR Inten    --    10.5612                39.3048                25.6061

                    22                     23                     24
                     A                      A                      A
 Frequencies --  1591.3875              1613.7803              1857.7654
 Red. masses --     5.5074                 8.0390                13.8803
 Frc consts  --     8.2177                12.3351                28.2248
 IR Inten    --    99.3307                95.2871                15.6541

                    25                     26                     27
                     A                      A                      A
 Frequencies --  3172.3546              3186.9338              3221.1188
 Red. masses --     1.0912                 1.0924                 1.0955
 Frc consts  --     6.4704                 6.5369                 6.6971
 IR Inten    --    12.0922                 9.8651                 0.6846

 - Thermochemistry -
 -------------------
 Temperature   298.150 Kelvin.  Pressure   1.00000 Atm.
 Atom     1 has atomic number  6 and mass  12.00000

 Molecular mass:   107.03577 amu.
 Principal axes and moments of inertia in atomic units:
                           1         2         3
     Eigenvalues --   309.120151054.612631354.40150
           X            1.00000  -0.00269  -0.00084
           Y            0.00269   0.99999   0.00259
           Z            0.00083  -0.00259   1.00000
 This molecule is an asymmetric top.
 Rotational symmetry number  1.
 Rotational temperatures (Kelvin)      0.28019     0.08213     0.06395
 Rotational constants (GHZ):           5.83832     1.71128     1.33250
 Zero-point vibrational energy     191513.4 (Joules/Mol)
                                   45.77281 (Kcal/Mol)
 Warning -- explicit consideration of   7 degrees of freedom as
           vibrations may cause significant error
 Vibrational temperatures:     81.84   262.89   379.50   542.44   609.07
          (Kelvin)            725.65   876.67   976.11  1101.48  1130.09
                             1228.32  1412.04  1446.95  1466.58  1551.22
                             1648.36  1707.56  1814.75  1901.27  2024.53
                             2111.70  2289.65  2321.87  2672.91  4564.31
                             4585.28  4634.47

 Zero-point correction=                           0.072944 (Hartree/Particle)
 Thermal correction to Energy=                    0.079225
 Thermal correction to Enthalpy=                  0.080169
 Thermal correction to Gibbs Free Energy=         0.041257
 Sum of electronic and zero-point Energies=           -373.135377
 Sum of electronic and thermal Energies=              -373.129096
 Sum of electronic and thermal Enthalpies=            -373.128152
 Sum of electronic and thermal Free Energies=         -373.167064

                     E (Thermal)             CV                S
                      KCal/Mol        Cal/Mol-Kelvin    Cal/Mol-Kelvin
 Total                   49.714             22.051             81.897
 Electronic               0.000              0.000              1.377
 Translational            0.889              2.981             39.921
 Rotational               0.889              2.981             27.581
 Vibrational             47.937             16.090             13.018
 Vibration     1          0.596              1.975              4.562
 Vibration     2          0.630              1.863              2.300
 Vibration     3          0.670              1.739              1.637
 Vibration     4          0.748              1.519              1.051
 Vibration     5          0.785              1.420              0.881
 Vibration     6          0.860              1.240              0.647
 Vibration     7          0.968              1.012              0.434

 Normal termination of Gaussian 09 at Tue Feb 22 03:55:37 2005.
