 Gaussian 09, Revision B.01,
 Gaussian 09:  EM64L-G09RevB.01 12-Aug-2010

 -------------------------------------------------
 #p Temperature=298.15 opt freq UB3LYP/aug-cc-pVDZ
 -------------------------------------------------

 --------------------------------------
 Pyridine-3+-UB3LYP-aug-cc-pVDZ-Triplet
 --------------------------------------
 Symbolic Z-matrix:
 Charge =  1 Multiplicity = 3

 SCF Done:  E(UB3LYP) =  -247.262587453     A.U. after   23 cycles
 SCF Done:  E(UB3LYP) =  -247.273228752     A.U. after   21 cycles
 SCF Done:  E(UB3LYP) =  -247.274918097     A.U. after   19 cycles
 SCF Done:  E(UB3LYP) =  -247.274431936     A.U. after   19 cycles
 SCF Done:  E(UB3LYP) =  -247.277065511     A.U. after   20 cycles
 SCF Done:  E(UB3LYP) =  -247.278158252     A.U. after   19 cycles
 SCF Done:  E(UB3LYP) =  -247.279237055     A.U. after   20 cycles
 SCF Done:  E(UB3LYP) =  -247.279741919     A.U. after   20 cycles
 SCF Done:  E(UB3LYP) =  -247.279829909     A.U. after   16 cycles
 SCF Done:  E(UB3LYP) =  -247.279844168     A.U. after   15 cycles
 SCF Done:  E(UB3LYP) =  -247.279845333     A.U. after   15 cycles
 SCF Done:  E(UB3LYP) =  -247.279845714     A.U. after   14 cycles
 SCF Done:  E(UB3LYP) =  -247.279845822     A.U. after   13 cycles
 Optimization completed.
    -- Stationary point found.
 Normal termination of Gaussian 09 at Fri Jan 21 10:21:11 2005.

 ----------------------------------------------------------------------
 #P Geom=AllCheck Guess=TCheck SCRF=Check GenChk UB3LYP/Aug-CC-pVDZ Fre
 q
 ----------------------------------------------------------------------

 Pyridine-3+-UB3LYP-aug-cc-pVDZ-Triplet
 --------------------------------------
 Redundant internal coordinates taken from checkpoint file:
 Pyridine-3+-UB3LYP-aug-cc-pVDZ-Triplet.chk
 Charge =  1 Multiplicity = 3

                         Standard orientation:
 ---------------------------------------------------------------------
 Center     Atomic      Atomic             Coordinates (Angstroms)
 Number     Number       Type             X           Y           Z
 ---------------------------------------------------------------------
      1          6           0        1.351789   -0.472554    0.024957
      2          6           0        0.271304   -1.366024   -0.117789
      3          6           0       -1.046543   -0.960831    0.017812
      4          6           0       -1.277554    0.419074    0.081246
      5          1           0        2.357110   -0.788741    0.320537
      6          1           0       -2.285613    0.833344    0.011618
      7          1           0       -1.873218   -1.674067    0.015012
      8          7           0        1.040884    0.804250   -0.008408
      9          6           0       -0.163998    1.317160   -0.014766
     10          1           0       -0.294456    2.378765   -0.237077
 ---------------------------------------------------------------------

 SCF Done:  E(UB3LYP) =  -247.279845822     A.U. after    1 cycles

 The electronic state is 3-A.
 Alpha  occ. eigenvalues --  -14.63627 -10.49624 -10.49199 -10.47688 -10.46068
 Alpha  occ. eigenvalues --  -10.44578  -1.23510  -1.05513  -1.02733  -0.88798
 Alpha  occ. eigenvalues --   -0.87159  -0.77305  -0.74340  -0.69827  -0.67173
 Alpha  occ. eigenvalues --   -0.65641  -0.64885  -0.56162  -0.54085  -0.51207
 Alpha  occ. eigenvalues --   -0.48805
 Alpha virt. eigenvalues --   -0.27727  -0.27295  -0.15239  -0.13190  -0.12087
 Alpha virt. eigenvalues --   -0.11726  -0.10948  -0.09701  -0.09573  -0.09079
 Alpha virt. eigenvalues --   -0.06390  -0.05827  -0.04815  -0.04450  -0.03143

  Beta  occ. eigenvalues --  -14.62402 -10.49431 -10.49050 -10.45765 -10.45629
  Beta  occ. eigenvalues --  -10.44693  -1.21480  -1.03827  -1.00879  -0.87014
  Beta  occ. eigenvalues --   -0.85065  -0.75831  -0.72973  -0.68897  -0.65580
  Beta  occ. eigenvalues --   -0.63603  -0.62836  -0.52953  -0.51069
  Beta virt. eigenvalues --   -0.41646  -0.31906  -0.26428  -0.24635  -0.15091
  Beta virt. eigenvalues --   -0.12617  -0.11886  -0.10764  -0.10611  -0.09411
  Beta virt. eigenvalues --   -0.09352  -0.08380  -0.06213  -0.05746  -0.04426

 Mulliken atomic charges:
              1
     1  C    0.571456
     2  C   -0.205300
     3  C    0.932698
     4  C    1.169095
     5  H   -0.354629
     6  H   -0.544699
     7  H   -0.440604
     8  N   -0.023386
     9  C    0.358987
    10  H   -0.463619
 Sum of Mulliken atomic charges =   1.00000

 Dipole moment (field-independent basis, Debye):
    X=             -0.7863    Y=              0.4121    Z=              0.1353  Tot=              0.8980
 Quadrupole moment (field-independent basis, Debye-Ang):
   XX=            -19.1089   YY=            -22.7872   ZZ=            -33.3976
   XY=             -2.1379   XZ=              0.7600   YZ=             -0.8938

  Exact polarizability:  72.128   0.354  67.972   0.184   0.537  32.796
 Approx polarizability: 129.359  -1.238 125.897  -0.610   2.244  49.579

                     1                      2                      3
                     A                      A                      A
 Frequencies --   323.6552               364.2922               474.6826
 Red. masses --     2.9454                 3.6596                 3.5754
 Frc consts  --     0.1818                 0.2861                 0.4747
 IR Inten    --    34.6842                10.7833                22.5273

                     4                      5                      6
                     A                      A                      A
 Frequencies --   506.8411               662.9865               773.9930
 Red. masses --     5.7031                 4.2393                 1.3849
 Frc consts  --     0.8632                 1.0979                 0.4888
 IR Inten    --    86.7880                18.7242                40.5889

                     7                      8                      9
                     A                      A                      A
 Frequencies --   870.7474               889.0080               933.9228
 Red. masses --     3.7765                 1.6162                 1.4353
 Frc consts  --     1.6871                 0.7526                 0.7376
 IR Inten    --    64.0278                 6.6976                 3.1420

                    10                     11                     12
                     A                      A                      A
 Frequencies --   967.2055              1015.8101              1027.9270
 Red. masses --     1.6231                 3.4048                 2.0068
 Frc consts  --     0.8946                 2.0700                 1.2493
 IR Inten    --     1.9591                 2.7202                 5.1627

                    13                     14                     15
                     A                      A                      A
 Frequencies --  1115.9036              1168.7928              1269.9660
 Red. masses --     1.5163                 1.3237                 1.2939
 Frc consts  --     1.1125                 1.0654                 1.2295
 IR Inten    --     7.0904                 1.3088                 0.8780

                    16                     17                     18
                     A                      A                      A
 Frequencies --  1320.7556              1399.8329              1431.2163
 Red. masses --     3.1043                 2.6732                 2.2548
 Frc consts  --     3.1905                 3.0862                 2.7212
 IR Inten    --    37.4120                37.3089                 7.0633

                    19                     20                     21
                     A                      A                      A
 Frequencies --  1507.7034              1549.9339              3160.3912
 Red. masses --     4.8736                 8.1588                 1.0902
 Frc consts  --     6.5273                11.5479                 6.4155
 IR Inten    --     5.6706                 4.2353                66.1723

                    22                     23                     24
                     A                      A                      A
 Frequencies --  3183.2354              3191.8464              3202.2775
 Red. masses --     1.0882                 1.0916                 1.0981
 Frc consts  --     6.4968                 6.5525                 6.6346
 IR Inten    --     4.2432                34.2252                26.4412

 - Thermochemistry -
 -------------------
 Temperature   298.150 Kelvin.  Pressure   1.00000 Atm.
 Atom     1 has atomic number  6 and mass  12.00000

 Molecular mass:    78.03437 amu.
 Principal axes and moments of inertia in atomic units:
                           1         2         3
     Eigenvalues --   279.13253 307.50106 583.74000
           X            0.98537  -0.17016   0.00912
           Y            0.17026   0.98534  -0.01079
           Z           -0.00716   0.01218   0.99990
 This molecule is an asymmetric top.
 Rotational symmetry number  1.
 Rotational temperatures (Kelvin)      0.31030     0.28167     0.14838
 Rotational constants (GHZ):           6.46554     5.86906     3.09169
 Zero-point vibrational energy     193274.2 (Joules/Mol)
                                   46.19365 (Kcal/Mol)
 Warning -- explicit consideration of   4 degrees of freedom as
           vibrations may cause significant error
 Vibrational temperatures:    465.67   524.13   682.96   729.23   953.89
          (Kelvin)           1113.60  1252.81  1279.08  1343.70  1391.59
                             1461.52  1478.96  1605.53  1681.63  1827.20
                             1900.27  2014.04  2059.20  2169.25  2230.01
                             4547.09  4579.96  4592.35  4607.36

 Zero-point correction=                           0.073614 (Hartree/Particle)
 Thermal correction to Energy=                    0.078223
 Thermal correction to Enthalpy=                  0.079167
 Thermal correction to Gibbs Free Energy=         0.045032
 Sum of electronic and zero-point Energies=           -247.206232
 Sum of electronic and thermal Energies=              -247.201623
 Sum of electronic and thermal Enthalpies=            -247.200679
 Sum of electronic and thermal Free Energies=         -247.234814

                     E (Thermal)             CV                S
                      KCal/Mol        Cal/Mol-Kelvin    Cal/Mol-Kelvin
 Total                   49.086             17.039             71.844
 Electronic               0.000              0.000              2.183
 Translational            0.889              2.981             38.979
 Rotational               0.889              2.981             25.419
 Vibrational             47.308             11.077              5.263
 Vibration     1          0.708              1.628              1.292
 Vibration     2          0.738              1.546              1.104
 Vibration     3          0.831              1.306              0.725
 Vibration     4          0.862              1.235              0.641

 Optimization completed.
    -- Stationary point found.
 Normal termination of Gaussian 09 at Fri Jan 21 10:23:36 2005.
