 Gaussian 09, Revision B.01,
 Gaussian 09:  EM64L-G09RevB.01 12-Aug-2010

 -------------------------------------------------
 #p Temperature=298.15 opt freq UB3LYP/aug-cc-pVDZ
 -------------------------------------------------

 -----------------------------------------
 Pyridine-2-N2+-UB3LYP-aug-cc-pVDZ-Singlet
 -----------------------------------------
 Symbolic Z-matrix:
 Charge =  1 Multiplicity = 1

 SCF Done:  E(UB3LYP) =  -356.897074353     A.U. after   15 cycles
 SCF Done:  E(UB3LYP) =  -356.910212800     A.U. after   15 cycles
 SCF Done:  E(UB3LYP) =  -356.911044142     A.U. after   16 cycles
 SCF Done:  E(UB3LYP) =  -356.911199683     A.U. after   17 cycles
 SCF Done:  E(UB3LYP) =  -356.911230125     A.U. after   17 cycles
 SCF Done:  E(UB3LYP) =  -356.911235017     A.U. after   17 cycles
 SCF Done:  E(UB3LYP) =  -356.911236026     A.U. after   10 cycles
 Optimization completed.
    -- Stationary point found.
 Normal termination of Gaussian 09 at Tue Mar  6 09:13:38 2018.

 ----------------------------------------------------------------------
 #P Geom=AllCheck Guess=TCheck SCRF=Check GenChk UB3LYP/Aug-CC-pVDZ Fre
 q
 ----------------------------------------------------------------------

 Pyridine-2-N2+-UB3LYP-aug-cc-pVDZ-Singlet
 -----------------------------------------
 Redundant internal coordinates taken from checkpoint file:
 Pyridine-2-N2+-UB3LYP-aug-cc-pVDZ-Singlet.chk
 Charge =  1 Multiplicity = 1

                         Standard orientation:
 ---------------------------------------------------------------------
 Center     Atomic      Atomic             Coordinates (Angstroms)
 Number     Number       Type             X           Y           Z
 ---------------------------------------------------------------------
      1          6           0        0.507764    0.018557   -0.000259
      2          6           0       -0.140324    1.253951   -0.000125
      3          6           0       -1.537368    1.173863    0.000018
      4          7           0        1.932560    0.005621    0.000014
      5          7           0        3.041150   -0.026054    0.000249
      6          1           0       -2.134497    2.085099    0.000166
      7          1           0        0.398186    2.200550   -0.000041
      8          6           0       -2.143055   -0.084110    0.000130
      9          1           0       -3.228917   -0.176758    0.000310
     10          6           0       -1.346119   -1.248299    0.000152
     11          1           0       -1.795446   -2.241697    0.000216
     12          7           0       -0.014383   -1.201133   -0.000283
 ---------------------------------------------------------------------

 SCF Done:  E(UB3LYP) =  -356.911236026     A.U. after    1 cycles

 The electronic state is 1-A.
 Alpha  occ. eigenvalues --  -14.73817 -14.71173 -14.55744 -10.51354 -10.43129
 Alpha  occ. eigenvalues --  -10.43126 -10.41322 -10.40873  -1.39823  -1.19006
 Alpha  occ. eigenvalues --   -1.05857  -1.02386  -0.92495  -0.85836  -0.79900
 Alpha  occ. eigenvalues --   -0.74516  -0.74158  -0.71932  -0.70221  -0.68345
 Alpha  occ. eigenvalues --   -0.65368  -0.61776  -0.60717  -0.58554  -0.50087
 Alpha  occ. eigenvalues --   -0.48850  -0.48602
 Alpha virt. eigenvalues --   -0.31216  -0.29269  -0.23599  -0.19884  -0.15737
 Alpha virt. eigenvalues --   -0.12120  -0.11436  -0.10916  -0.09517  -0.08817
 Alpha virt. eigenvalues --   -0.08598  -0.07427  -0.06167  -0.05995  -0.04945

  Beta  occ. eigenvalues --  -14.73817 -14.71173 -14.55744 -10.51354 -10.43129
  Beta  occ. eigenvalues --  -10.43126 -10.41322 -10.40873  -1.39823  -1.19006
  Beta  occ. eigenvalues --   -1.05857  -1.02386  -0.92495  -0.85836  -0.79900
  Beta  occ. eigenvalues --   -0.74516  -0.74158  -0.71932  -0.70221  -0.68345
  Beta  occ. eigenvalues --   -0.65368  -0.61776  -0.60717  -0.58554  -0.50087
  Beta  occ. eigenvalues --   -0.48850  -0.48602
  Beta virt. eigenvalues --   -0.31216  -0.29269  -0.23599  -0.19884  -0.15737
  Beta virt. eigenvalues --   -0.12120  -0.11436  -0.10916  -0.09517  -0.08817
  Beta virt. eigenvalues --   -0.08598  -0.07427  -0.06167  -0.05995  -0.04945

 Mulliken atomic charges:
              1
     1  C    0.054773
     2  C    1.594666
     3  C    0.406153
     4  N    0.529770
     5  N   -0.590746
     6  H   -0.589507
     7  H   -0.661769
     8  C    1.436027
     9  H   -0.625892
    10  C    0.023033
    11  H   -0.574879
    12  N   -0.001630
 Sum of Mulliken atomic charges =   1.00000

 Dipole moment (field-independent basis, Debye):
    X=             -0.1338    Y=              2.0710    Z=              0.0006  Tot=              2.0753
 Quadrupole moment (field-independent basis, Debye-Ang):
   XX=            -19.1109   YY=            -34.6264   ZZ=            -43.8937
   XY=              1.9326   XZ=             -0.0010   YZ=             -0.0007

  Exact polarizability: 115.935   0.803  72.519  -0.001  -0.001  39.576
 Approx polarizability: 215.695   0.661 126.451  -0.004  -0.001  61.106

                     1                      2                      3
                     A                      A                      A
 Frequencies --   142.2283               162.2641               370.9390
 Red. masses --     6.1829                 7.9605                 4.0353
 Frc consts  --     0.0737                 0.1235                 0.3271
 IR Inten    --     1.0612                 0.1185                 0.0002

                     4                      5                      6
                     A                      A                      A
 Frequencies --   407.5872               451.0871               538.4396
 Red. masses --     3.7354                10.0756                 9.0889
 Frc consts  --     0.3656                 1.2079                 1.5525
 IR Inten    --     6.4338                15.8692                 1.3993

                     7                      8                      9
                     A                      A                      A
 Frequencies --   540.0334               629.4278               718.4416
 Red. masses --     4.7721                 7.5681                 2.9845
 Frc consts  --     0.8200                 1.7666                 0.9076
 IR Inten    --     7.1228                 6.2934                 2.4726

                    10                     11                     12
                     A                      A                      A
 Frequencies --   758.5010               788.9950               918.2183
 Red. masses --     7.0754                 1.4371                 1.2712
 Frc consts  --     2.3984                 0.5271                 0.6315
 IR Inten    --     1.7917                52.9421                 0.0178

                    13                     14                     15
                     A                      A                      A
 Frequencies --   997.2768              1001.9938              1035.9062
 Red. masses --     6.6857                 1.3898                 1.4276
 Frc consts  --     3.9177                 0.8221                 0.9026
 IR Inten    --    33.3700                 0.5360                 0.0944

                    16                     17                     18
                     A                      A                      A
 Frequencies --  1047.3176              1054.0409              1127.4314
 Red. masses --     3.4568                 2.5828                 1.6883
 Frc consts  --     2.2340                 1.6907                 1.2644
 IR Inten    --    13.5119                27.5122                 0.3087

                    19                     20                     21
                     A                      A                      A
 Frequencies --  1179.5620              1319.0956              1365.8311
 Red. masses --     1.1122                 1.5006                 5.3227
 Frc consts  --     0.9117                 1.5384                 5.8503
 IR Inten    --     0.1385                 0.2841                10.1096

                    22                     23                     24
                     A                      A                      A
 Frequencies --  1433.7630              1476.1271              1574.5775
 Red. masses --     1.9758                 2.2738                 4.7974
 Frc consts  --     2.3931                 2.9191                 7.0078
 IR Inten    --     9.4364                 6.4458                29.9965

                    25                     26                     27
                     A                      A                      A
 Frequencies --  1620.7721              2370.9327              3204.2967
 Red. masses --     6.2630                13.9811                 1.0917
 Frc consts  --     9.6933                46.3052                 6.6040
 IR Inten    --    21.6192               120.7488                 1.2639

                    28                     29                     30
                     A                      A                      A
 Frequencies --  3212.1232              3219.7315              3225.6928
 Red. masses --     1.0921                 1.0957                 1.1007
 Frc consts  --     6.6392                 6.6924                 6.7481
 IR Inten    --     1.0971                 9.3351                 8.4418

 - Thermochemistry -
 -------------------
 Temperature   298.150 Kelvin.  Pressure   1.00000 Atm.
 Atom     1 has atomic number  6 and mass  12.00000

 Molecular mass:   106.04052 amu.
 Principal axes and moments of inertia in atomic units:
                           1         2         3
     Eigenvalues --   316.848111101.474601418.32269
           X            0.99999   0.00408  -0.00001
           Y           -0.00408   0.99999   0.00000
           Z            0.00001   0.00000   1.00000
 This molecule is an asymmetric top.
 Rotational symmetry number  1.
 Rotational temperatures (Kelvin)      0.27336     0.07863     0.06107
 Rotational constants (GHZ):           5.69592     1.63848     1.27245
 Zero-point vibrational energy     226648.3 (Joules/Mol)
                                   54.17024 (Kcal/Mol)
 Warning -- explicit consideration of   7 degrees of freedom as
           vibrations may cause significant error
 Vibrational temperatures:    204.63   233.46   533.70   586.43   649.01
          (Kelvin)            774.69   776.99   905.61  1033.68  1091.31
                             1135.19  1321.11  1434.86  1441.64  1490.44
                             1506.85  1516.53  1622.12  1697.12  1897.88
                             1965.12  2062.86  2123.81  2265.46  2331.93
                             3411.24  4610.26  4621.52  4632.47  4641.05

 Zero-point correction=                           0.086326 (Hartree/Particle)
 Thermal correction to Energy=                    0.092452
 Thermal correction to Enthalpy=                  0.093396
 Thermal correction to Gibbs Free Energy=         0.055998
 Sum of electronic and zero-point Energies=           -356.824910
 Sum of electronic and thermal Energies=              -356.818784
 Sum of electronic and thermal Enthalpies=            -356.817840
 Sum of electronic and thermal Free Energies=         -356.855238

                     E (Thermal)             CV                S
                      KCal/Mol        Cal/Mol-Kelvin    Cal/Mol-Kelvin
 Total                   58.015             22.826             78.711
 Electronic               0.000              0.000              0.000
 Translational            0.889              2.981             39.893
 Rotational               0.889              2.981             27.695
 Vibrational             56.237             16.865             11.123
 Vibration     1          0.616              1.911              2.774
 Vibration     2          0.622              1.889              2.523
 Vibration     3          0.743              1.532              1.076
 Vibration     4          0.772              1.454              0.935
 Vibration     5          0.810              1.358              0.792
 Vibration     6          0.893              1.165              0.569
 Vibration     7          0.895              1.162              0.565

 Optimization completed.
    -- Stationary point found.
 Normal termination of Gaussian 09 at Tue Mar  6 09:20:08 2018.
