 Gaussian 09, Revision B.01,
 Gaussian 09:  EM64L-G09RevB.01 12-Aug-2010

 -------------------------------------------------
 #p Temperature=298.15 opt freq UB3LYP/aug-cc-pVDZ
 -------------------------------------------------

 ------------------------------------
 Pyridine-3-UB3LYP-aug-cc-pVDZ-Duplet
 ------------------------------------
 Symbolic Z-matrix:
 Charge =  0 Multiplicity = 2

 SCF Done:  E(UB3LYP) =  -247.618575254     A.U. after   17 cycles
 SCF Done:  E(UB3LYP) =  -247.626334358     A.U. after   17 cycles
 SCF Done:  E(UB3LYP) =  -247.626497163     A.U. after   16 cycles
 SCF Done:  E(UB3LYP) =  -247.626505048     A.U. after   17 cycles
 SCF Done:  E(UB3LYP) =  -247.626504964     A.U. after   10 cycles
 SCF Done:  E(UB3LYP) =  -247.626506312     A.U. after   17 cycles
 Optimization completed.
    -- Stationary point found.
 Normal termination of Gaussian 09 at Tue Mar  6 15:28:37 2018.

 ----------------------------------------------------------------------
 #P Geom=AllCheck Guess=TCheck SCRF=Check GenChk UB3LYP/Aug-CC-pVDZ Fre
 q
 ----------------------------------------------------------------------

 Pyridine-3-UB3LYP-aug-cc-pVDZ-Duplet
 ------------------------------------
 Redundant internal coordinates taken from checkpoint file:
 Pyridine-3-UB3LYP-aug-cc-pVDZ-Duplet.chk
 Charge =  0 Multiplicity = 2

                         Standard orientation:
 ---------------------------------------------------------------------
 Center     Atomic      Atomic             Coordinates (Angstroms)
 Number     Number       Type             X           Y           Z
 ---------------------------------------------------------------------
      1          6           0        1.276112   -0.607236    0.000006
      2          6           0        0.127895   -1.378643    0.000024
      3          6           0       -1.147597   -0.856154   -0.000027
      4          6           0       -1.236696    0.545277    0.000007
      5          1           0        2.281095   -1.030628    0.000038
      6          1           0       -2.204598    1.049160   -0.000021
      7          1           0       -2.040586   -1.483306    0.000056
      8          7           0        1.173892    0.737702   -0.000026
      9          6           0       -0.048249    1.284210   -0.000033
     10          1           0       -0.081946    2.376143    0.000246
 ---------------------------------------------------------------------

 SCF Done:  E(UB3LYP) =  -247.626506312     A.U. after    1 cycles

 The electronic state is 2-A.
 Alpha  occ. eigenvalues --  -14.35199 -10.24033 -10.23492 -10.22921 -10.22620
 Alpha  occ. eigenvalues --  -10.21872  -0.96130  -0.82370  -0.77591  -0.64780
 Alpha  occ. eigenvalues --   -0.63387  -0.53887  -0.49970  -0.46701  -0.42897
 Alpha  occ. eigenvalues --   -0.41483  -0.41372  -0.30661  -0.30261  -0.28078
 Alpha  occ. eigenvalues --   -0.24966
 Alpha virt. eigenvalues --   -0.04990  -0.03229  -0.01073   0.00938   0.01099
 Alpha virt. eigenvalues --    0.03093   0.04578   0.04882   0.05531   0.07728
 Alpha virt. eigenvalues --    0.08161   0.08471   0.08781   0.09152   0.09766

  Beta  occ. eigenvalues --  -14.34964 -10.24040 -10.23549 -10.22638 -10.21748
  Beta  occ. eigenvalues --  -10.21438  -0.95586  -0.81501  -0.76670  -0.64417
  Beta  occ. eigenvalues --   -0.62135  -0.53369  -0.49298  -0.46184  -0.42340
  Beta  occ. eigenvalues --   -0.41239  -0.40293  -0.30369  -0.27706  -0.27534
  Beta virt. eigenvalues --   -0.10940  -0.04996  -0.02438  -0.01041   0.01072
  Beta virt. eigenvalues --    0.01118   0.03111   0.04611   0.05375   0.05584
  Beta virt. eigenvalues --    0.07760   0.08176   0.08534   0.08915   0.09209

 Mulliken atomic charges:
              1
     1  C    0.520481
     2  C   -0.299005
     3  C    0.834342
     4  C    1.355741
     5  H   -0.544780
     6  H   -0.675541
     7  H   -0.542802
     8  N   -0.208043
     9  C    0.178721
    10  H   -0.619113
 Sum of Mulliken atomic charges =   0.00000

 Dipole moment (field-independent basis, Debye):
    X=             -1.9206    Y=             -0.2082    Z=              0.0002  Tot=              1.9318
 Quadrupole moment (field-independent basis, Debye-Ang):
   XX=            -32.6488   YY=            -34.2859   ZZ=            -37.2948
   XY=             -2.6444   XZ=              0.0000   YZ=              0.0004

  Exact polarizability:  76.040  -1.295  76.295   0.000   0.000  40.265
 Approx polarizability: 128.767   0.001 132.715   0.000  -0.001  59.881

                     1                      2                      3
                     A                      A                      A
 Frequencies --   388.3615               418.3088               575.4412
 Red. masses --     2.7981                 4.2751                 7.7185
 Frc consts  --     0.2486                 0.4407                 1.5059
 IR Inten    --     3.1188                 0.0793                20.7185

                     4                      5                      6
                     A                      A                      A
 Frequencies --   656.1820               685.6487               776.6407
 Red. masses --     7.2076                 2.2796                 1.4812
 Frc consts  --     1.8285                 0.6314                 0.5264
 IR Inten    --     2.1417                37.9728                27.9420

                     7                      8                      9
                     A                      A                      A
 Frequencies --   919.5461               939.9871               983.5230
 Red. masses --     1.3349                 1.3275                 8.9603
 Frc consts  --     0.6650                 0.6911                 5.1067
 IR Inten    --     1.0517                 0.1238                 7.5294

                    10                     11                     12
                     A                      A                      A
 Frequencies --   986.2840              1042.5242              1061.6013
 Red. masses --     1.4536                 4.2457                 1.9071
 Frc consts  --     0.8331                 2.7188                 1.2664
 IR Inten    --     0.1840                 0.9487                 9.8313

                    13                     14                     15
                     A                      A                      A
 Frequencies --  1103.4329              1194.9855              1277.1653
 Red. masses --     1.5279                 1.3817                 6.4758
 Frc consts  --     1.0961                 1.1625                 6.2236
 IR Inten    --     4.2099                 3.7726                 1.1077

                    16                     17                     18
                     A                      A                      A
 Frequencies --  1315.4923              1429.6784              1458.7058
 Red. masses --     1.2752                 1.9953                 1.9864
 Frc consts  --     1.3001                 2.4028                 2.4902
 IR Inten    --     1.1322                17.1419                 1.7331

                    19                     20                     21
                     A                      A                      A
 Frequencies --  1544.3524              1613.5954              3162.6069
 Red. masses --     5.9782                 6.8368                 1.0873
 Frc consts  --     8.4006                10.4879                 6.4076
 IR Inten    --     8.3672                13.0730                 5.9473

                    22                     23                     24
                     A                      A                      A
 Frequencies --  3176.2429              3184.1161              3191.9640
 Red. masses --     1.0889                 1.0906                 1.0979
 Frc consts  --     6.4721                 6.5148                 6.5906
 IR Inten    --     7.3110                 9.8257                 8.2736

 - Thermochemistry -
 -------------------
 Temperature   298.150 Kelvin.  Pressure   1.00000 Atm.
 Atom     1 has atomic number  6 and mass  12.00000

 Molecular mass:    78.03437 amu.
 Principal axes and moments of inertia in atomic units:
                           1         2         3
     Eigenvalues --   274.14416 313.64026 587.78442
           X            0.98559  -0.16913   0.00000
           Y            0.16913   0.98559   0.00001
           Z            0.00000  -0.00001   1.00000
 This molecule is an asymmetric top.
 Rotational symmetry number  1.
 Rotational temperatures (Kelvin)      0.31594     0.27616     0.14736
 Rotational constants (GHZ):           6.58318     5.75418     3.07041
 Zero-point vibrational energy     197900.5 (Joules/Mol)
                                   47.29936 (Kcal/Mol)
 Warning -- explicit consideration of   3 degrees of freedom as
           vibrations may cause significant error
 Vibrational temperatures:    558.76   601.85   827.93   944.10   986.49
          (Kelvin)           1117.41  1323.02  1352.43  1415.07  1419.04
                             1499.96  1527.41  1587.59  1719.32  1837.55
                             1892.70  2056.99  2098.75  2221.98  2321.60
                             4550.28  4569.90  4581.23  4592.52

 Zero-point correction=                           0.075376 (Hartree/Particle)
 Thermal correction to Energy=                    0.079650
 Thermal correction to Enthalpy=                  0.080594
 Thermal correction to Gibbs Free Energy=         0.047383
 Sum of electronic and zero-point Energies=           -247.551130
 Sum of electronic and thermal Energies=              -247.546856
 Sum of electronic and thermal Enthalpies=            -247.545912
 Sum of electronic and thermal Free Energies=         -247.579124

                     E (Thermal)             CV                S
                      KCal/Mol        Cal/Mol-Kelvin    Cal/Mol-Kelvin
 Total                   49.981             15.873             69.900
 Electronic               0.000              0.000              1.377
 Translational            0.889              2.981             38.979
 Rotational               0.889              2.981             25.428
 Vibrational             48.204              9.911              4.116
 Vibration     1          0.757              1.495              1.006
 Vibration     2          0.781              1.430              0.898
 Vibration     3          0.932              1.084              0.494

 Optimization completed.
    -- Stationary point found.
 Normal termination of Gaussian 09 at Tue Mar  6 15:31:03 2018.
