 Gaussian 09, Revision B.01,
 Gaussian 09:  EM64L-G09RevB.01 12-Aug-2010

 -------------------------------------------------
 #p Temperature=298.15 opt freq UB3LYP/aug-cc-pVDZ
 -------------------------------------------------

 -------------------------------------------
 Pyrimidine-2-N2+-UB3LYP-aug-cc-pVDZ-Singlet
 -------------------------------------------
 Symbolic Z-matrix:
 Charge =  1 Multiplicity = 1

 SCF Done:  E(UB3LYP) =  -372.912303134     A.U. after   17 cycles
 SCF Done:  E(UB3LYP) =  -372.938496101     A.U. after   13 cycles
 SCF Done:  E(UB3LYP) =  -372.941665035     A.U. after   15 cycles
 SCF Done:  E(UB3LYP) =  -372.942241734     A.U. after   14 cycles
 SCF Done:  E(UB3LYP) =  -372.942487847     A.U. after   12 cycles
 SCF Done:  E(UB3LYP) =  -372.942480408     A.U. after   14 cycles
 SCF Done:  E(UB3LYP) =  -372.942503397     A.U. after   14 cycles
 SCF Done:  E(UB3LYP) =  -372.942504447     A.U. after   15 cycles
 Optimization completed.
    -- Stationary point found.
 Normal termination of Gaussian 09 at Tue Mar  6 10:17:01 2018.

 ----------------------------------------------------------------------
 #P Geom=AllCheck Guess=TCheck SCRF=Check GenChk UB3LYP/Aug-CC-pVDZ Fre
 q
 ----------------------------------------------------------------------

 Pyrimidine-2-N2+-UB3LYP-aug-cc-pVDZ-Singlet
 -------------------------------------------
 Redundant internal coordinates taken from checkpoint file:
 Pyrimidine-2-N2+-UB3LYP-aug-cc-pVDZ-Singlet.chk
 Charge =  1 Multiplicity = 1

                         Standard orientation:
 ---------------------------------------------------------------------
 Center     Atomic      Atomic             Coordinates (Angstroms)
 Number     Number       Type             X           Y           Z
 ---------------------------------------------------------------------
      1          6           0        0.448544   -0.000056   -0.000072
      2          7           0        1.923574   -0.000022    0.000126
      3          7           0        3.028520    0.000021   -0.000034
      4          6           0       -2.121841    0.000024    0.000041
      5          1           0       -3.211261   -0.000084    0.000247
      6          6           0       -1.402947    1.203844   -0.000093
      7          1           0       -1.894343    2.177109    0.000313
      8          7           0       -0.056355    1.208055   -0.000015
      9          6           0       -1.403081   -1.203769   -0.000110
     10          1           0       -1.894342   -2.177087    0.000314
     11          7           0       -0.056325   -1.208082    0.000000
 ---------------------------------------------------------------------

 SCF Done:  E(UB3LYP) =  -372.942504447     A.U. after    2 cycles

 The electronic state is 1-A.
 Alpha  occ. eigenvalues --  -14.74519 -14.72634 -14.57679 -14.57678 -10.55270
 Alpha  occ. eigenvalues --  -10.45562 -10.45561 -10.42108  -1.40952  -1.24164
 Alpha  occ. eigenvalues --   -1.13716  -1.06204  -0.95930  -0.89224  -0.82627
 Alpha  occ. eigenvalues --   -0.75780  -0.75453  -0.72941  -0.71746  -0.69825
 Alpha  occ. eigenvalues --   -0.65496  -0.63864  -0.62800  -0.54874  -0.53950
 Alpha  occ. eigenvalues --   -0.50840  -0.48990
 Alpha virt. eigenvalues --   -0.32252  -0.29827  -0.26135  -0.21429  -0.15997
 Alpha virt. eigenvalues --   -0.13282  -0.11952  -0.10651  -0.09996  -0.08425
 Alpha virt. eigenvalues --   -0.08416  -0.08070  -0.07462  -0.06434  -0.04819

  Beta  occ. eigenvalues --  -14.74519 -14.72634 -14.57679 -14.57678 -10.55270
  Beta  occ. eigenvalues --  -10.45562 -10.45561 -10.42108  -1.40952  -1.24164
  Beta  occ. eigenvalues --   -1.13716  -1.06204  -0.95930  -0.89224  -0.82627
  Beta  occ. eigenvalues --   -0.75780  -0.75453  -0.72941  -0.71746  -0.69825
  Beta  occ. eigenvalues --   -0.65496  -0.63864  -0.62800  -0.54874  -0.53950
  Beta  occ. eigenvalues --   -0.50840  -0.48990
  Beta virt. eigenvalues --   -0.32252  -0.29827  -0.26135  -0.21429  -0.15997
  Beta virt. eigenvalues --   -0.13282  -0.11952  -0.10651  -0.09996  -0.08425
  Beta virt. eigenvalues --   -0.08416  -0.08070  -0.07462  -0.06434  -0.04819

 Mulliken atomic charges:
              1
     1  C    0.126014
     2  N    0.557510
     3  N   -0.424798
     4  C    1.431839
     5  H   -0.569091
     6  C    0.606192
     7  H   -0.533908
     8  N   -0.133035
     9  C    0.606480
    10  H   -0.534140
    11  N   -0.133063
 Sum of Mulliken atomic charges =   1.00000

 Dipole moment (field-independent basis, Debye):
    X=             -0.8416    Y=              0.0000    Z=              0.0005  Tot=              0.8416
 Quadrupole moment (field-independent basis, Debye-Ang):
   XX=            -15.6859   YY=            -38.2339   ZZ=            -42.2038
   XY=             -0.0002   XZ=             -0.0012   YZ=              0.0000

  Exact polarizability: 104.211   0.001  65.849  -0.001   0.000  36.822
 Approx polarizability: 182.440   0.002 118.006  -0.003   0.000  56.981

                     1                      2                      3
                     A                      A                      A
 Frequencies --   138.4973               154.2179               351.2332
 Red. masses --     7.2360                 9.2425                 5.1305
 Frc consts  --     0.0818                 0.1295                 0.3729
 IR Inten    --     3.9378                 0.9558                 2.9319

                     4                      5                      6
                     A                      A                      A
 Frequencies --   412.3145               420.3773               529.5794
 Red. masses --     4.3527                11.8588                10.7731
 Frc consts  --     0.4360                 1.2347                 1.7801
 IR Inten    --     0.0000                 5.3836                 5.3380

                     7                      8                      9
                     A                      A                      A
 Frequencies --   531.9876               631.4247               757.9762
 Red. masses --     3.9279                 8.2923                 8.1030
 Frc consts  --     0.6550                 1.9479                 2.7429
 IR Inten    --     3.2667                12.3880                 8.9941

                    10                     11                     12
                     A                      A                      A
 Frequencies --   763.6563               847.3322              1002.6969
 Red. masses --     6.7374                 1.2386                10.1283
 Frc consts  --     2.3149                 0.5240                 5.9996
 IR Inten    --     9.1906                31.6061                14.8301

                    13                     14                     15
                     A                      A                      A
 Frequencies --  1012.9003              1034.3645              1054.8511
 Red. masses --     1.3555                 1.4927                 6.2639
 Frc consts  --     0.8194                 0.9409                 4.1066
 IR Inten    --     0.0000                 0.3172                 0.0008

                    16                     17                     18
                     A                      A                      A
 Frequencies --  1089.9619              1128.1477              1256.5251
 Red. masses --     2.4460                 1.3821                 2.7686
 Frc consts  --     1.7121                 1.0364                 2.5754
 IR Inten    --     6.1087                 0.4590                 0.5807

                    19                     20                     21
                     A                      A                      A
 Frequencies --  1352.0445              1386.7090              1470.5326
 Red. masses --     1.9936                 2.1435                 2.4679
 Frc consts  --     2.1472                 2.4286                 3.1443
 IR Inten    --     3.4033                40.7636                 9.3870

                    22                     23                     24
                     A                      A                      A
 Frequencies --  1554.1301              1628.2742              2413.4829
 Red. masses --     3.9189                 8.0693                13.9981
 Frc consts  --     5.5768                12.6049                48.0405
 IR Inten    --     0.7850               109.7004                21.2355

                    25                     26                     27
                     A                      A                      A
 Frequencies --  3210.1349              3214.2633              3228.8394
 Red. masses --     1.0927                 1.0953                 1.0993
 Frc consts  --     6.6345                 6.6675                 6.7522
 IR Inten    --     1.6476                 7.1957                 7.2456

 - Thermochemistry -
 -------------------
 Temperature   298.150 Kelvin.  Pressure   1.00000 Atm.
 Atom     1 has atomic number  6 and mass  12.00000

 Molecular mass:   107.03577 amu.
 Principal axes and moments of inertia in atomic units:
                           1         2         3
     Eigenvalues --   304.277221075.585011379.86222
           X            1.00000   0.00000  -0.00001
           Y            0.00000   1.00000   0.00000
           Z            0.00001   0.00000   1.00000
 This molecule is an asymmetric top.
 Rotational symmetry number  1.
 Rotational temperatures (Kelvin)      0.28465     0.08053     0.06277
 Rotational constants (GHZ):           5.93124     1.67792     1.30791
 Zero-point vibrational energy     194850.5 (Joules/Mol)
                                   46.57038 (Kcal/Mol)
 Warning -- explicit consideration of   7 degrees of freedom as
           vibrations may cause significant error
 Vibrational temperatures:    199.27   221.88   505.35   593.23   604.83
          (Kelvin)            761.95   765.41   908.48  1090.56  1098.73
                             1219.12  1442.66  1457.34  1488.22  1517.69
                             1568.21  1623.15  1807.86  1945.29  1995.16
                             2115.77  2236.04  2342.72  3472.46  4618.66
                             4624.60  4645.57

 Zero-point correction=                           0.074215 (Hartree/Particle)
 Thermal correction to Energy=                    0.080314
 Thermal correction to Enthalpy=                  0.081258
 Thermal correction to Gibbs Free Energy=         0.043853
 Sum of electronic and zero-point Energies=           -372.868290
 Sum of electronic and thermal Energies=              -372.862191
 Sum of electronic and thermal Enthalpies=            -372.861247
 Sum of electronic and thermal Free Energies=         -372.898651

                     E (Thermal)             CV                S
                      KCal/Mol        Cal/Mol-Kelvin    Cal/Mol-Kelvin
 Total                   50.398             22.103             78.725
 Electronic               0.000              0.000              0.000
 Translational            0.889              2.981             39.921
 Rotational               0.889              2.981             27.604
 Vibrational             48.620             16.142             11.200
 Vibration     1          0.614              1.915              2.825
 Vibration     2          0.620              1.898              2.620
 Vibration     3          0.728              1.573              1.161
 Vibration     4          0.776              1.443              0.918
 Vibration     5          0.783              1.426              0.891
 Vibration     6          0.885              1.185              0.588
 Vibration     7          0.887              1.179              0.583

 Optimization completed.
    -- Stationary point found.
 Normal termination of Gaussian 09 at Tue Mar  6 10:22:24 2018.
