 Gaussian 09, Revision B.01,
 Gaussian 09:  EM64L-G09RevB.01 12-Aug-2010

 -------------------------------------------------
 #p Temperature=298.15 opt freq UB3LYP/aug-cc-pVDZ
 -------------------------------------------------

 -----------------------------------------
 Pyridine-2-N2+-UB3LYP-aug-cc-pVDZ-Triplet
 -----------------------------------------
 Symbolic Z-matrix:
 Charge =  1 Multiplicity = 3

 SCF Done:  E(UB3LYP) =  -356.787922087     A.U. after   29 cycles
 SCF Done:  E(UB3LYP) =  -356.805588554     A.U. after   23 cycles
 SCF Done:  E(UB3LYP) =  -356.807934659     A.U. after   21 cycles
 SCF Done:  E(UB3LYP) =  -356.809074266     A.U. after   21 cycles
 SCF Done:  E(UB3LYP) =  -356.810179560     A.U. after   21 cycles
 SCF Done:  E(UB3LYP) =  -356.810903787     A.U. after   18 cycles
 SCF Done:  E(UB3LYP) =  -356.811934109     A.U. after   19 cycles
 SCF Done:  E(UB3LYP) =  -356.812668436     A.U. after   19 cycles
 SCF Done:  E(UB3LYP) =  -356.813310216     A.U. after   22 cycles
 SCF Done:  E(UB3LYP) =  -356.813860006     A.U. after   18 cycles
 SCF Done:  E(UB3LYP) =  -356.814476026     A.U. after   18 cycles
 SCF Done:  E(UB3LYP) =  -356.814492420     A.U. after   18 cycles
 SCF Done:  E(UB3LYP) =  -356.814593565     A.U. after   17 cycles
 SCF Done:  E(UB3LYP) =  -356.814609643     A.U. after   17 cycles
 SCF Done:  E(UB3LYP) =  -356.814613623     A.U. after   16 cycles
 SCF Done:  E(UB3LYP) =  -356.814614828     A.U. after   15 cycles
 SCF Done:  E(UB3LYP) =  -356.814615229     A.U. after   13 cycles
 SCF Done:  E(UB3LYP) =  -356.814615376     A.U. after   14 cycles
 SCF Done:  E(UB3LYP) =  -356.814615460     A.U. after   14 cycles
 Optimization completed.
    -- Stationary point found.
 Normal termination of Gaussian 09 at Fri Jan 21 08:51:44 2005.

 ----------------------------------------------------------------------
 #P Geom=AllCheck Guess=TCheck SCRF=Check GenChk UB3LYP/Aug-CC-pVDZ Fre
 q
 ----------------------------------------------------------------------

 Pyridine-2-N2+-UB3LYP-aug-cc-pVDZ-Triplet
 -----------------------------------------
 Redundant internal coordinates taken from checkpoint file:
 Pyridine-2-N2+-UB3LYP-aug-cc-pVDZ-Triplet.chk
 Charge =  1 Multiplicity = 3

                         Standard orientation:
 ---------------------------------------------------------------------
 Center     Atomic      Atomic             Coordinates (Angstroms)
 Number     Number       Type             X           Y           Z
 ---------------------------------------------------------------------
      1          6           0       -0.585195   -0.008655   -0.092051
      2          6           0        0.139358    1.247090   -0.155257
      3          6           0        1.511777    1.182103    0.008286
      4          7           0       -1.920252   -0.003224    0.358214
      5          7           0       -2.986552   -0.027721   -0.124752
      6          1           0        2.101527    2.099223    0.043327
      7          1           0       -0.410467    2.188088   -0.169753
      8          6           0        2.144538   -0.069042    0.133684
      9          1           0        3.230123   -0.160665    0.170037
     10          6           0        1.342611   -1.258457   -0.012361
     11          1           0        1.815964   -2.226430   -0.198165
     12          7           0        0.041706   -1.177404   -0.110497
 ---------------------------------------------------------------------

 SCF Done:  E(UB3LYP) =  -356.814615460     A.U. after    1 cycles

 The electronic state is 3-A.
 Alpha  occ. eigenvalues --  -14.64200 -14.62465 -14.59587 -10.53423 -10.48415
 Alpha  occ. eigenvalues --  -10.45364 -10.45336 -10.43537  -1.30024  -1.21420
 Alpha  occ. eigenvalues --   -1.05007  -1.04541  -0.93700  -0.88263  -0.82727
 Alpha  occ. eigenvalues --   -0.74858  -0.72960  -0.70182  -0.68081  -0.66111
 Alpha  occ. eigenvalues --   -0.64574  -0.62647  -0.62028  -0.61371  -0.53500
 Alpha  occ. eigenvalues --   -0.53255  -0.50389  -0.40512
 Alpha virt. eigenvalues --   -0.27530  -0.26637  -0.24613  -0.15063  -0.12903
 Alpha virt. eigenvalues --   -0.12441  -0.11511  -0.10784  -0.09912  -0.09293
 Alpha virt. eigenvalues --   -0.08123  -0.06453  -0.06100  -0.05116  -0.04528

  Beta  occ. eigenvalues --  -14.63938 -14.60931 -14.58963 -10.52798 -10.48244
  Beta  occ. eigenvalues --  -10.44893 -10.44766 -10.43709  -1.28265  -1.20139
  Beta  occ. eigenvalues --   -1.03976  -1.02761  -0.91822  -0.87338  -0.81605
  Beta  occ. eigenvalues --   -0.74065  -0.72119  -0.68509  -0.65341  -0.63925
  Beta  occ. eigenvalues --   -0.63217  -0.61615  -0.60831  -0.58768  -0.52150
  Beta  occ. eigenvalues --   -0.50056
  Beta virt. eigenvalues --   -0.41125  -0.28051  -0.25768  -0.23032  -0.22720
  Beta virt. eigenvalues --   -0.14890  -0.12339  -0.11915  -0.10665  -0.10402
  Beta virt. eigenvalues --   -0.09654  -0.09086  -0.07774  -0.06115  -0.06017

 Mulliken atomic charges:
              1
     1  C    0.112518
     2  C    1.357892
     3  C    0.598076
     4  N    0.129777
     5  N   -0.366490
     6  H   -0.570189
     7  H   -0.609045
     8  C    1.256034
     9  H   -0.573789
    10  C    0.184163
    11  H   -0.493190
    12  N   -0.025757
 Sum of Mulliken atomic charges =   1.00000

 Dipole moment (field-independent basis, Debye):
    X=              4.5098    Y=              1.2657    Z=             -0.0349  Tot=              4.6842
 Quadrupole moment (field-independent basis, Debye-Ang):
   XX=            -26.0844   YY=            -32.0306   ZZ=            -44.0644
   XY=             -2.4590   XZ=              0.1045   YZ=             -0.1111

  Exact polarizability: 126.094  -1.158  76.640   0.901   0.018  41.794
 Approx polarizability: 220.540  -6.182 130.694   3.494   0.143  66.641

                     1                      2                      3
                     A                      A                      A
 Frequencies --    85.5631                98.8222               264.2674
 Red. masses --     9.1462                 6.6446                 6.2203
 Frc consts  --     0.0395                 0.0382                 0.2559
 IR Inten    --     0.7265                11.9904                41.2623

                     4                      5                      6
                     A                      A                      A
 Frequencies --   329.1111               356.6422               413.4088
 Red. masses --     3.6886                 5.0265                 3.7246
 Frc consts  --     0.2354                 0.3767                 0.3751
 IR Inten    --     7.9685                23.2239                24.1693

                     7                      8                      9
                     A                      A                      A
 Frequencies --   425.6106               543.6941               603.2878
 Red. masses --     6.2438                 5.8739                 3.0182
 Frc consts  --     0.6664                 1.0230                 0.6472
 IR Inten    --    24.4917                43.4167                 4.0611

                    10                     11                     12
                     A                      A                      A
 Frequencies --   738.7491               761.7788               851.5963
 Red. masses --     1.5946                 4.3377                 1.8299
 Frc consts  --     0.5127                 1.4831                 0.7819
 IR Inten    --    47.3771                36.2311                18.6994

                    13                     14                     15
                     A                      A                      A
 Frequencies --   922.1177               964.5114               980.2630
 Red. masses --     2.4459                 1.6783                 1.8825
 Frc consts  --     1.2254                 0.9199                 1.0658
 IR Inten    --    21.1614                 7.7238                12.3918

                    16                     17                     18
                     A                      A                      A
 Frequencies --  1009.3477              1096.7988              1162.6347
 Red. masses --     2.0004                 1.6351                 1.2416
 Frc consts  --     1.2008                 1.1589                 0.9888
 IR Inten    --     8.9002                 9.3546                18.8466

                    19                     20                     21
                     A                      A                      A
 Frequencies --  1166.1062              1284.7866              1358.3608
 Red. masses --     3.5604                 1.6585                 2.0759
 Frc consts  --     2.8525                 1.6130                 2.2568
 IR Inten    --    88.1270                 1.5417                 8.2303

                    22                     23                     24
                     A                      A                      A
 Frequencies --  1430.9756              1451.4810              1503.3633
 Red. masses --     2.7503                 2.8243                 3.3034
 Frc consts  --     3.3181                 3.5058                 4.3989
 IR Inten    --    51.1861               110.2990                30.7231

                    25                     26                     27
                     A                      A                      A
 Frequencies --  1568.1718              1847.5645              3177.6140
 Red. masses --     6.6094                13.8328                 1.0922
 Frc consts  --     9.5763                27.8202                 6.4976
 IR Inten    --    98.0937                38.4892                10.6152

                    28                     29                     30
                     A                      A                      A
 Frequencies --  3200.6879              3217.7514              3221.1572
 Red. masses --     1.0908                 1.0939                 1.0977
 Frc consts  --     6.5836                 6.6732                 6.7105
 IR Inten    --     4.8377                16.3060                19.3198

 - Thermochemistry -
 -------------------
 Temperature   298.150 Kelvin.  Pressure   1.00000 Atm.
 Atom     1 has atomic number  6 and mass  12.00000

 Molecular mass:   106.04052 amu.
 Principal axes and moments of inertia in atomic units:
                           1         2         3
     Eigenvalues --   325.182691093.033071397.55613
           X            0.99999  -0.00429   0.00112
           Y            0.00429   0.99999   0.00150
           Z           -0.00113  -0.00150   1.00000
 This molecule is an asymmetric top.
 Rotational symmetry number  1.
 Rotational temperatures (Kelvin)      0.26635     0.07924     0.06198
 Rotational constants (GHZ):           5.54993     1.65113     1.29136
 Zero-point vibrational energy     215544.5 (Joules/Mol)
                                   51.51637 (Kcal/Mol)
 Warning -- explicit consideration of   9 degrees of freedom as
           vibrations may cause significant error
 Vibrational temperatures:    123.11   142.18   380.22   473.52   513.13
          (Kelvin)            594.80   612.36   782.25   868.00  1062.89
                             1096.03  1225.26  1326.72  1387.72  1410.38
                             1452.22  1578.05  1672.77  1677.76  1848.52
                             1954.38  2058.85  2088.35  2163.00  2256.25
                             2658.23  4571.87  4605.07  4629.62  4634.52

 Zero-point correction=                           0.082097 (Hartree/Particle)
 Thermal correction to Energy=                    0.089095
 Thermal correction to Enthalpy=                  0.090039
 Thermal correction to Gibbs Free Energy=         0.049559
 Sum of electronic and zero-point Energies=           -356.732519
 Sum of electronic and thermal Energies=              -356.725520
 Sum of electronic and thermal Enthalpies=            -356.724576
 Sum of electronic and thermal Free Energies=         -356.765056

                     E (Thermal)             CV                S
                      KCal/Mol        Cal/Mol-Kelvin    Cal/Mol-Kelvin
 Total                   55.908             24.876             85.198
 Electronic               0.000              0.000              2.183
 Translational            0.889              2.981             39.893
 Rotational               0.889              2.981             27.698
 Vibrational             54.131             18.915             15.423
 Vibration     1          0.601              1.959              3.759
 Vibration     2          0.604              1.950              3.477
 Vibration     3          0.671              1.738              1.633
 Vibration     4          0.712              1.617              1.264
 Vibration     5          0.732              1.562              1.137
 Vibration     6          0.777              1.441              0.915
 Vibration     7          0.787              1.415              0.873
 Vibration     8          0.899              1.154              0.557
 Vibration     9          0.962              1.025              0.444

 Optimization completed.
    -- Stationary point found.
 Normal termination of Gaussian 09 at Fri Jan 21 08:58:28 2005.
