 Gaussian 09, Revision B.01,
 Gaussian 09:  EM64L-G09RevB.01 12-Aug-2010

 -------------------------------------------------
 #p Temperature=298.15 opt freq UB3LYP/aug-cc-pVDZ
 -------------------------------------------------

 -------------------------------------------
 Pyrimidine-5-N2+-UB3LYP-aug-cc-pVDZ-Singlet
 -------------------------------------------
 Symbolic Z-matrix:
 Charge =  1 Multiplicity = 1

 SCF Done:  E(UB3LYP) =  -372.914578051     A.U. after   15 cycles
 SCF Done:  E(UB3LYP) =  -372.932566881     A.U. after   16 cycles
 SCF Done:  E(UB3LYP) =  -372.933320678     A.U. after   11 cycles
 SCF Done:  E(UB3LYP) =  -372.933394646     A.U. after   10 cycles
 SCF Done:  E(UB3LYP) =  -372.933407182     A.U. after   14 cycles
 Optimization completed.
    -- Stationary point found.
 Normal termination of Gaussian 09 at Tue Mar  6 10:53:10 2018.

 ----------------------------------------------------------------------
 #P Geom=AllCheck Guess=TCheck SCRF=Check GenChk UB3LYP/Aug-CC-pVDZ Fre
 q
 ----------------------------------------------------------------------

 Pyrimidine-5-N2+-UB3LYP-aug-cc-pVDZ-Singlet
 -------------------------------------------
 Redundant internal coordinates taken from checkpoint file:
 Pyrimidine-5-N2+-UB3LYP-aug-cc-pVDZ-Singlet.chk
 Charge =  1 Multiplicity = 1

                         Standard orientation:
 ---------------------------------------------------------------------
 Center     Atomic      Atomic             Coordinates (Angstroms)
 Number     Number       Type             X           Y           Z
 ---------------------------------------------------------------------
      1          6           0       -0.167439    1.225673   -0.000084
      2          6           0        0.542083    0.000011   -0.000035
      3          6           0       -0.167427   -1.225647    0.000038
      4          6           0       -2.092424   -0.000020   -0.000115
      5          1           0        0.344276    2.191174    0.000035
      6          7           0        1.916557    0.000035   -0.000010
      7          7           0        3.031361   -0.000032    0.000039
      8          1           0       -3.183016   -0.000014    0.000408
      9          1           0        0.344353   -2.191117   -0.000001
     10          7           0       -1.487837   -1.202123   -0.000012
     11          7           0       -1.487849    1.202101    0.000086
 ---------------------------------------------------------------------

 SCF Done:  E(UB3LYP) =  -372.933407182     A.U. after    2 cycles

 The electronic state is 1-A.
 Alpha  occ. eigenvalues --  -14.75546 -14.72076 -14.55905 -14.55904 -10.50906
 Alpha  occ. eigenvalues --  -10.48326 -10.48324 -10.47995  -1.40935  -1.21708
 Alpha  occ. eigenvalues --   -1.12081  -1.12004  -0.95801  -0.89850  -0.83804
 Alpha  occ. eigenvalues --   -0.77986  -0.76091  -0.75006  -0.72142  -0.71389
 Alpha  occ. eigenvalues --   -0.65678  -0.64528  -0.63242  -0.54203  -0.52422
 Alpha  occ. eigenvalues --   -0.51911  -0.46629
 Alpha virt. eigenvalues --   -0.32961  -0.31025  -0.26480  -0.22021  -0.16639
 Alpha virt. eigenvalues --   -0.12442  -0.12001  -0.11554  -0.11288  -0.09049
 Alpha virt. eigenvalues --   -0.08336  -0.07392  -0.07176  -0.05929  -0.05880

  Beta  occ. eigenvalues --  -14.75546 -14.72076 -14.55905 -14.55904 -10.50906
  Beta  occ. eigenvalues --  -10.48326 -10.48324 -10.47995  -1.40935  -1.21708
  Beta  occ. eigenvalues --   -1.12081  -1.12004  -0.95801  -0.89850  -0.83804
  Beta  occ. eigenvalues --   -0.77986  -0.76091  -0.75006  -0.72142  -0.71389
  Beta  occ. eigenvalues --   -0.65678  -0.64528  -0.63242  -0.54203  -0.52422
  Beta  occ. eigenvalues --   -0.51911  -0.46629
  Beta virt. eigenvalues --   -0.32961  -0.31025  -0.26480  -0.22021  -0.16639
  Beta virt. eigenvalues --   -0.12442  -0.12001  -0.11554  -0.11288  -0.09049
  Beta virt. eigenvalues --   -0.08336  -0.07392  -0.07176  -0.05929  -0.05880

 Mulliken atomic charges:
              1
     1  C    0.744376
     2  C    1.000429
     3  C    0.744404
     4  C    0.509035
     5  H   -0.547827
     6  N    0.464043
     7  N   -0.540619
     8  H   -0.328869
     9  H   -0.547809
    10  N   -0.248580
    11  N   -0.248585
 Sum of Mulliken atomic charges =   1.00000

 Dipole moment (field-independent basis, Debye):
    X=              3.3181    Y=              0.0001    Z=              0.0000  Tot=              3.3181
 Quadrupole moment (field-independent basis, Debye-Ang):
   XX=            -25.5242   YY=            -37.7345   ZZ=            -42.0824
   XY=              0.0001   XZ=             -0.0004   YZ=             -0.0003

  Exact polarizability: 114.014   0.000  64.823   0.001   0.000  36.548
 Approx polarizability: 233.685   0.000 112.124   0.004  -0.001  56.817

                     1                      2                      3
                     A                      A                      A
 Frequencies --   140.0533               166.7784               302.9185
 Red. masses --     4.5624                 8.1505                 4.2155
 Frc consts  --     0.0527                 0.1336                 0.2279
 IR Inten    --     0.4856                 1.9653                 4.1446

                     4                      5                      6
                     A                      A                      A
 Frequencies --   380.3944               486.0212               523.0278
 Red. masses --     3.7291                 9.2927                 8.6226
 Frc consts  --     0.3179                 1.2933                 1.3898
 IR Inten    --     0.0000                 2.1197                 8.8457

                     7                      8                      9
                     A                      A                      A
 Frequencies --   553.5631               622.9300               692.3257
 Red. masses --     9.1446                 9.8928                 2.2531
 Frc consts  --     1.6510                 2.2618                 0.6363
 IR Inten    --     0.9689                 9.2137                37.1180

                    10                     11                     12
                     A                      A                      A
 Frequencies --   788.6084               945.4597               954.4004
 Red. masses --    10.8290                 1.7092                 1.4305
 Frc consts  --     3.9679                 0.9002                 0.7677
 IR Inten    --    16.9156                 5.2524                 0.0000

                    13                     14                     15
                     A                      A                      A
 Frequencies --  1023.7655              1046.0669              1125.2949
 Red. masses --     4.1293                 1.5475                 6.2485
 Frc consts  --     2.5499                 0.9977                 4.6619
 IR Inten    --    19.1629                 0.7208                72.3860

                    16                     17                     18
                     A                      A                      A
 Frequencies --  1164.3717              1204.4454              1254.4439
 Red. masses --     3.2076                 2.3690                 4.1002
 Frc consts  --     2.5622                 2.0248                 3.8015
 IR Inten    --    80.9501                32.3850                 0.1083

                    19                     20                     21
                     A                      A                      A
 Frequencies --  1365.4481              1429.7705              1463.3190
 Red. masses --     1.1984                 1.8109                 2.4154
 Frc consts  --     1.3164                 2.1811                 3.0473
 IR Inten    --     0.2029                 6.2573                30.3394

                    22                     23                     24
                     A                      A                      A
 Frequencies --  1540.7358              1586.6434              2330.2944
 Red. masses --     4.8926                 7.6643                13.9404
 Frc consts  --     6.8430                11.3680                44.6013
 IR Inten    --    67.4002               341.7804               213.7353

                    25                     26                     27
                     A                      A                      A
 Frequencies --  3182.2239              3182.7985              3213.8681
 Red. masses --     1.0962                 1.0954                 1.0960
 Frc consts  --     6.5406                 6.5380                 6.6701
 IR Inten    --     0.5389                11.2186                 1.5394

 - Thermochemistry -
 -------------------
 Temperature   298.150 Kelvin.  Pressure   1.00000 Atm.
 Atom     1 has atomic number  6 and mass  12.00000

 Molecular mass:   107.03577 amu.
 Principal axes and moments of inertia in atomic units:
                           1         2         3
     Eigenvalues --   307.833341104.312711412.14604
           X            1.00000   0.00000   0.00000
           Y            0.00000   1.00000   0.00000
           Z            0.00000   0.00000   1.00000
 This molecule is an asymmetric top.
 Rotational symmetry number  1.
 Rotational temperatures (Kelvin)      0.28137     0.07843     0.06133
 Rotational constants (GHZ):           5.86272     1.63427     1.27801
 Zero-point vibrational energy     195409.8 (Joules/Mol)
                                   46.70407 (Kcal/Mol)
 Warning -- explicit consideration of   7 degrees of freedom as
           vibrations may cause significant error
 Vibrational temperatures:    201.51   239.96   435.83   547.30   699.28
          (Kelvin)            752.52   796.45   896.26   996.10  1134.63
                             1360.30  1373.17  1472.97  1505.06  1619.05
                             1675.27  1732.93  1804.86  1964.57  2057.12
                             2105.39  2216.77  2282.82  3352.77  4578.50
                             4579.33  4624.03

 Zero-point correction=                           0.074428 (Hartree/Particle)
 Thermal correction to Energy=                    0.080510
 Thermal correction to Enthalpy=                  0.081454
 Thermal correction to Gibbs Free Energy=         0.044055
 Sum of electronic and zero-point Energies=           -372.858980
 Sum of electronic and thermal Energies=              -372.852897
 Sum of electronic and thermal Enthalpies=            -372.851953
 Sum of electronic and thermal Free Energies=         -372.889352

                     E (Thermal)             CV                S
                      KCal/Mol        Cal/Mol-Kelvin    Cal/Mol-Kelvin
 Total                   50.521             21.885             78.714
 Electronic               0.000              0.000              0.000
 Translational            0.889              2.981             39.921
 Rotational               0.889              2.981             27.664
 Vibrational             48.743             15.924             11.129
 Vibration     1          0.615              1.913              2.803
 Vibration     2          0.624              1.883              2.471
 Vibration     3          0.694              1.668              1.401
 Vibration     4          0.750              1.512              1.038
 Vibration     5          0.842              1.281              0.694
 Vibration     6          0.878              1.199              0.603
 Vibration     7          0.909              1.132              0.537

 Optimization completed.
    -- Stationary point found.
 Normal termination of Gaussian 09 at Tue Mar  6 10:58:31 2018.
