 Gaussian 09, Revision B.01,
 Gaussian 09:  EM64L-G09RevB.01 12-Aug-2010

 -------------------------------------------------
 #p Temperature=298.15 opt freq UB3LYP/aug-cc-pVDZ
 -------------------------------------------------

 -----------------------------------------
 Pyridine-3-N2+-UB3LYP-aug-cc-pVDZ-Triplet
 -----------------------------------------
 Symbolic Z-matrix:
 Charge =  1 Multiplicity = 3

 SCF Done:  E(UB3LYP) =  -356.781113166     A.U. after   42 cycles
 SCF Done:  E(UB3LYP) =  -356.806267937     A.U. after   22 cycles
 SCF Done:  E(UB3LYP) =  -356.810738730     A.U. after   21 cycles
 SCF Done:  E(UB3LYP) =  -356.811035590     A.U. after   17 cycles
 SCF Done:  E(UB3LYP) =  -356.811075734     A.U. after   16 cycles
 SCF Done:  E(UB3LYP) =  -356.811143119     A.U. after   23 cycles
 SCF Done:  E(UB3LYP) =  -356.811188600     A.U. after   20 cycles
 SCF Done:  E(UB3LYP) =  -356.811277297     A.U. after   17 cycles
 SCF Done:  E(UB3LYP) =  -356.811465855     A.U. after   22 cycles
 SCF Done:  E(UB3LYP) =  -356.811542079     A.U. after   18 cycles
 SCF Done:  E(UB3LYP) =  -356.814936053     A.U. after   21 cycles
 SCF Done:  E(UB3LYP) =  -356.815615865     A.U. after   21 cycles
 SCF Done:  E(UB3LYP) =  -356.816031532     A.U. after   19 cycles
 SCF Done:  E(UB3LYP) =  -356.816249117     A.U. after   19 cycles
 SCF Done:  E(UB3LYP) =  -356.816396516     A.U. after   18 cycles
 SCF Done:  E(UB3LYP) =  -356.816476187     A.U. after   18 cycles
 SCF Done:  E(UB3LYP) =  -356.816500368     A.U. after   17 cycles
 SCF Done:  E(UB3LYP) =  -356.816507348     A.U. after   17 cycles
 SCF Done:  E(UB3LYP) =  -356.816508661     A.U. after   15 cycles
 Optimization completed.
    -- Stationary point found.
 Normal termination of Gaussian 09 at Fri Jan 21 10:03:31 2005.

 ----------------------------------------------------------------------
 #P Geom=AllCheck Guess=TCheck SCRF=Check GenChk UB3LYP/Aug-CC-pVDZ Fre
 q
 ----------------------------------------------------------------------

 Pyridine-3-N2+-UB3LYP-aug-cc-pVDZ-Triplet
 -----------------------------------------
 Redundant internal coordinates taken from checkpoint file:
 Pyridine-3-N2+-UB3LYP-aug-cc-pVDZ-Triplet.chk
 Charge =  1 Multiplicity = 3

                         Standard orientation:
 ---------------------------------------------------------------------
 Center     Atomic      Atomic             Coordinates (Angstroms)
 Number     Number       Type             X           Y           Z
 ---------------------------------------------------------------------
      1          6           0       -0.225860   -1.303616   -0.010680
      2          6           0        0.601319   -0.146202    0.002992
      3          6           0       -0.002704    1.120560   -0.068574
      4          6           0       -1.390389    1.229918   -0.069407
      5          1           0        0.166870   -2.304593   -0.205756
      6          7           0        2.006906   -0.372868   -0.181861
      7          7           0        2.856656    0.352947    0.213407
      8          1           0       -1.894430    2.196328   -0.026596
      9          1           0        0.628201    2.010243   -0.109740
     10          7           0       -1.509936   -1.078782    0.045435
     11          6           0       -2.171808    0.054210    0.063852
     12          1           0       -3.239377    0.059719    0.294129
 ---------------------------------------------------------------------

 SCF Done:  E(UB3LYP) =  -356.816508661     A.U. after    1 cycles

 The electronic state is 3-A.
 Alpha  occ. eigenvalues --  -14.65449 -14.61063 -14.59318 -10.49103 -10.49055
 Alpha  occ. eigenvalues --  -10.48829 -10.44870 -10.44251  -1.26886  -1.24231
 Alpha  occ. eigenvalues --   -1.06115  -1.03767  -0.93660  -0.88122  -0.82155
 Alpha  occ. eigenvalues --   -0.76828  -0.75410  -0.69497  -0.67417  -0.67325
 Alpha  occ. eigenvalues --   -0.65388  -0.63280  -0.62171  -0.60043  -0.54839
 Alpha  occ. eigenvalues --   -0.53300  -0.50449  -0.39814
 Alpha virt. eigenvalues --   -0.28845  -0.27357  -0.21182  -0.15066  -0.13010
 Alpha virt. eigenvalues --   -0.12121  -0.11481  -0.11155  -0.09605  -0.09294
 Alpha virt. eigenvalues --   -0.08691  -0.06301  -0.05915  -0.05252  -0.04592

  Beta  occ. eigenvalues --  -14.63979 -14.60716 -14.57652 -10.49034 -10.48730
  Beta  occ. eigenvalues --  -10.48428 -10.44646 -10.44313  -1.24978  -1.21986
  Beta  occ. eigenvalues --   -1.04653  -1.02849  -0.92069  -0.87085  -0.79945
  Beta  occ. eigenvalues --   -0.75584  -0.74393  -0.68776  -0.66012  -0.64816
  Beta  occ. eigenvalues --   -0.63143  -0.61537  -0.60270  -0.56086  -0.52552
  Beta  occ. eigenvalues --   -0.50049
  Beta virt. eigenvalues --   -0.41252  -0.27909  -0.26631  -0.24827  -0.19756
  Beta virt. eigenvalues --   -0.14868  -0.12755  -0.11944  -0.11119  -0.10835
  Beta virt. eigenvalues --   -0.09344  -0.09067  -0.08359  -0.06244  -0.05830

 Mulliken atomic charges:
              1
     1  C    0.374297
     2  C    0.621947
     3  C    1.234026
     4  C    1.024442
     5  H   -0.489390
     6  N    0.020809
     7  N   -0.392836
     8  H   -0.571867
     9  H   -0.654827
    10  N   -0.013596
    11  C    0.323934
    12  H   -0.476940
 Sum of Mulliken atomic charges =   1.00000

 Dipole moment (field-independent basis, Debye):
    X=             -4.9034    Y=              0.2586    Z=             -0.0143  Tot=              4.9102
 Quadrupole moment (field-independent basis, Debye-Ang):
   XX=            -30.0701   YY=            -30.5172   ZZ=            -43.9645
   XY=             -2.6800   XZ=             -1.2818   YZ=             -0.4284

  Exact polarizability: 119.478   4.022  78.677  -0.057   0.523  40.328
 Approx polarizability: 209.564  11.688 144.867   0.634   1.544  63.060

                     1                      2                      3
                     A                      A                      A
 Frequencies --    93.4215               170.3196               276.8710
 Red. masses --     8.3783                 6.1643                 6.7253
 Frc consts  --     0.0431                 0.1054                 0.3038
 IR Inten    --    10.7518                 2.7064                 8.3480

                     4                      5                      6
                     A                      A                      A
 Frequencies --   313.0072               392.7450               420.2714
 Red. masses --     3.0433                 4.5377                 6.6137
 Frc consts  --     0.1757                 0.4124                 0.6883
 IR Inten    --   132.0452                16.5979                 3.6569

                     7                      8                      9
                     A                      A                      A
 Frequencies --   518.1474               578.0778               600.9574
 Red. masses --     3.5177                 3.5933                 6.3640
 Frc consts  --     0.5564                 0.7075                 1.3542
 IR Inten    --    47.3914                53.9200                 3.9393

                    10                     11                     12
                     A                      A                      A
 Frequencies --   725.6005               779.0316               872.4341
 Red. masses --     5.0218                 1.4845                 1.6356
 Frc consts  --     1.5578                 0.5308                 0.7335
 IR Inten    --    21.9051                54.8811                32.8937

                    13                     14                     15
                     A                      A                      A
 Frequencies --   914.3066               968.1582               983.0419
 Red. masses --     1.4498                 3.2541                 1.5839
 Frc consts  --     0.7140                 1.7971                 0.9018
 IR Inten    --     5.5017                21.1119                15.4332

                    16                     17                     18
                     A                      A                      A
 Frequencies --  1050.7839              1095.9625              1117.6554
 Red. masses --     2.2770                 2.5656                 1.6162
 Frc consts  --     1.4813                 1.8156                 1.1895
 IR Inten    --     1.0836                56.5865                10.5671

                    19                     20                     21
                     A                      A                      A
 Frequencies --  1172.2623              1278.8836              1290.6102
 Red. masses --     1.3768                 1.6466                 2.4339
 Frc consts  --     1.1147                 1.5867                 2.3886
 IR Inten    --     2.4746                 3.2720                50.3359

                    22                     23                     24
                     A                      A                      A
 Frequencies --  1437.0456              1454.4433              1498.6873
 Red. masses --     2.2453                 3.0719                 5.3635
 Frc consts  --     2.7320                 3.8287                 7.0977
 IR Inten    --    37.6688                35.6742                 7.2955

                    25                     26                     27
                     A                      A                      A
 Frequencies --  1599.3007              1812.5026              3176.5557
 Red. masses --     8.3659                13.8030                 1.0903
 Frc consts  --    12.6073                26.7166                 6.4818
 IR Inten    --    21.2658                31.9824                60.9009

                    28                     29                     30
                     A                      A                      A
 Frequencies --  3185.2977              3195.9571              3209.6637
 Red. masses --     1.0898                 1.0922                 1.0981
 Frc consts  --     6.5149                 6.5726                 6.6651
 IR Inten    --    22.9671                24.8395                33.3960

 - Thermochemistry -
 -------------------
 Temperature   298.150 Kelvin.  Pressure   1.00000 Atm.
 Atom     1 has atomic number  6 and mass  12.00000

 Molecular mass:   106.04052 amu.
 Principal axes and moments of inertia in atomic units:
                           1         2         3
     Eigenvalues --   319.691371083.052451392.50756
           X            0.99986  -0.01652  -0.00335
           Y            0.01653   0.99986   0.00256
           Z            0.00330  -0.00261   0.99999
 This molecule is an asymmetric top.
 Rotational symmetry number  1.
 Rotational temperatures (Kelvin)      0.27093     0.07997     0.06220
 Rotational constants (GHZ):           5.64526     1.66635     1.29604
 Zero-point vibrational energy     216416.4 (Joules/Mol)
                                   51.72477 (Kcal/Mol)
 Warning -- explicit consideration of   9 degrees of freedom as
           vibrations may cause significant error
 Vibrational temperatures:    134.41   245.05   398.36   450.35   565.07
          (Kelvin)            604.68   745.50   831.72   864.64  1043.98
                             1120.85  1255.24  1315.48  1392.96  1414.38
                             1511.84  1576.84  1608.05  1686.62  1840.03
                             1856.90  2067.59  2092.62  2156.27  2301.03
                             2607.78  4570.35  4582.93  4598.26  4617.98

 Zero-point correction=                           0.082429 (Hartree/Particle)
 Thermal correction to Energy=                    0.089143
 Thermal correction to Enthalpy=                  0.090088
 Thermal correction to Gibbs Free Energy=         0.050440
 Sum of electronic and zero-point Energies=           -356.734080
 Sum of electronic and thermal Energies=              -356.727365
 Sum of electronic and thermal Enthalpies=            -356.726421
 Sum of electronic and thermal Free Energies=         -356.766069

                     E (Thermal)             CV                S
                      KCal/Mol        Cal/Mol-Kelvin    Cal/Mol-Kelvin
 Total                   55.938             24.428             83.446
 Electronic               0.000              0.000              2.183
 Translational            0.889              2.981             39.893
 Rotational               0.889              2.981             27.669
 Vibrational             54.161             18.466             13.701
 Vibration     1          0.602              1.954              3.587
 Vibration     2          0.625              1.879              2.432
 Vibration     3          0.678              1.716              1.553
 Vibration     4          0.701              1.649              1.346
 Vibration     5          0.760              1.486              0.990
 Vibration     6          0.783              1.426              0.891
 Vibration     7          0.873              1.210              0.614
 Vibration     8          0.935              1.079              0.489
 Vibration     9          0.959              1.030              0.448

 Normal termination of Gaussian 09 at Fri Jan 21 10:10:10 2005.
