 Gaussian 09, Revision B.01,
 Gaussian 09:  EM64L-G09RevB.01 12-Aug-2010

 -------------------------------------------------
 #p Temperature=298.15 opt freq UB3LYP/aug-cc-pVDZ
 -------------------------------------------------

 --------------------------------------
 Pyrimidine-5-UB3LYP-aug-cc-pVDZ-Duplet
 --------------------------------------
 Symbolic Z-matrix:
 Charge =  0 Multiplicity = 2

 SCF Done:  E(UB3LYP) =  -263.651895370     A.U. after   16 cycles
 SCF Done:  E(UB3LYP) =  -263.667232841     A.U. after   14 cycles
 SCF Done:  E(UB3LYP) =  -263.667512758     A.U. after   16 cycles
 SCF Done:  E(UB3LYP) =  -263.667524331     A.U. after   19 cycles
 Optimization completed.
    -- Stationary point found.
 Normal termination of Gaussian 09 at Tue Mar  6 16:46:17 2018.

 ----------------------------------------------------------------------
 #P Geom=AllCheck Guess=TCheck SCRF=Check GenChk UB3LYP/Aug-CC-pVDZ Fre
 q
 ----------------------------------------------------------------------

 Pyrimidine-5-UB3LYP-aug-cc-pVDZ-Duplet
 --------------------------------------
 Redundant internal coordinates taken from checkpoint file:
 Pyrimidine-5-UB3LYP-aug-cc-pVDZ-Duplet.chk
 Charge =  0 Multiplicity = 2

                         Standard orientation:
 ---------------------------------------------------------------------
 Center     Atomic      Atomic             Coordinates (Angstroms)
 Number     Number       Type             X           Y           Z
 ---------------------------------------------------------------------
      1          6           0       -1.205607   -0.695635   -0.000033
      2          6           0        0.000225   -1.367559    0.000002
      3          6           0        1.205838   -0.695349    0.000032
      4          6           0       -0.000179    1.243360   -0.000001
      5          1           0       -2.175756   -1.195450    0.000015
      6          1           0       -0.000330    2.335285    0.000030
      7          1           0        2.176243   -1.194674    0.000000
      8          7           0        1.200405    0.653456   -0.000030
      9          7           0       -1.200665    0.653107    0.000023
 ---------------------------------------------------------------------

 SCF Done:  E(UB3LYP) =  -263.667524331     A.U. after    1 cycles

 The electronic state is 2-A.
 Alpha  occ. eigenvalues --  -14.36567 -14.36566 -10.27171 -10.26326 -10.26325
 Alpha  occ. eigenvalues --  -10.24312  -1.01061  -0.91472  -0.81320  -0.68290
 Alpha  occ. eigenvalues --   -0.66690  -0.55629  -0.53778  -0.45222  -0.44674
 Alpha  occ. eigenvalues --   -0.43898  -0.37640  -0.33867  -0.30940  -0.28044
 Alpha  occ. eigenvalues --   -0.26936
 Alpha virt. eigenvalues --   -0.06992  -0.04934  -0.00756   0.01003   0.01324
 Alpha virt. eigenvalues --    0.03716   0.04668   0.04991   0.05582   0.07752
 Alpha virt. eigenvalues --    0.08160   0.09113   0.09590   0.09620   0.10146

  Beta  occ. eigenvalues --  -14.36360 -14.36358 -10.27224 -10.26338 -10.26337
  Beta  occ. eigenvalues --  -10.22840  -1.00586  -0.91036  -0.79848  -0.67936
  Beta  occ. eigenvalues --   -0.65417  -0.55233  -0.53061  -0.44698  -0.44474
  Beta  occ. eigenvalues --   -0.43507  -0.34407  -0.33783  -0.30059  -0.27282
  Beta virt. eigenvalues --   -0.12698  -0.07073  -0.04147  -0.00680   0.00985
  Beta virt. eigenvalues --    0.01424   0.03805   0.05013   0.05282   0.05611
  Beta virt. eigenvalues --    0.07801   0.08091   0.09131   0.09626   0.09665

 Mulliken atomic charges:
              1
     1  C    0.719962
     2  C   -0.020064
     3  C    0.720105
     4  C    0.425612
     5  H   -0.461654
     6  H   -0.391082
     7  H   -0.461703
     8  N   -0.265568
     9  N   -0.265608
 Sum of Mulliken atomic charges =   0.00000

 Dipole moment (field-independent basis, Debye):
    X=              0.0004    Y=             -1.2145    Z=              0.0000  Tot=              1.2145
 Quadrupole moment (field-independent basis, Debye-Ang):
   XX=            -35.5317   YY=            -33.2653   ZZ=            -35.4136
   XY=             -0.0001   XZ=              0.0001   YZ=              0.0000

  Exact polarizability:  68.588   0.000  70.685   0.000   0.000  36.574
 Approx polarizability: 118.717   0.001 123.696   0.001   0.000  54.686

                     1                      2                      3
                     A                      A                      A
 Frequencies --   376.2853               399.9540               568.3992
 Red. masses --     3.4369                 4.1069                 8.5586
 Frc consts  --     0.2867                 0.3871                 1.6292
 IR Inten    --     0.0199                 0.0000                30.5157

                     4                      5                      6
                     A                      A                      A
 Frequencies --   687.4567               699.7889               895.4163
 Red. masses --     8.5462                 2.3534                 1.6222
 Frc consts  --     2.3796                 0.6790                 0.7663
 IR Inten    --     8.6752                38.3163                 7.7667

                     7                      8                      9
                     A                      A                      A
 Frequencies --   972.5093               989.2721              1000.2770
 Red. masses --     1.3821                12.2004                 1.4839
 Frc consts  --     0.7702                 7.0349                 0.8748
 IR Inten    --     0.0000                 5.5514                 0.0073

                    10                     11                     12
                     A                      A                      A
 Frequencies --  1080.4524              1125.4743              1157.7506
 Red. masses --     3.5639                 2.5986                 2.9702
 Frc consts  --     2.4513                 1.9393                 2.3457
 IR Inten    --     4.4461                 0.1872                 9.7135

                    13                     14                     15
                     A                      A                      A
 Frequencies --  1249.7619              1330.9178              1408.9773
 Red. masses --     3.8297                 1.2427                 2.1548
 Frc consts  --     3.5243                 1.2969                 2.5204
 IR Inten    --     1.0247                 1.4245                35.0447

                    16                     17                     18
                     A                      A                      A
 Frequencies --  1435.1191              1512.3153              1597.7757
 Red. masses --     1.7170                 5.5992                 7.3034
 Frc consts  --     2.0835                 7.5450                10.9851
 IR Inten    --     8.0249                21.2631                68.3861

                    19                     20                     21
                     A                      A                      A
 Frequencies --  3174.2910              3178.9681              3181.5449
 Red. masses --     1.0895                 1.0897                 1.0940
 Frc consts  --     6.4682                 6.4884                 6.5244
 IR Inten    --     9.8829                 7.3460                 1.0530

 - Thermochemistry -
 -------------------
 Temperature   298.150 Kelvin.  Pressure   1.00000 Atm.
 Atom     1 has atomic number  6 and mass  12.00000

 Molecular mass:    79.02962 amu.
 Principal axes and moments of inertia in atomic units:
                           1         2         3
     Eigenvalues --   260.43857 302.82375 563.26233
           X            1.00000   0.00003   0.00000
           Y           -0.00003   1.00000   0.00000
           Z            0.00000   0.00000   1.00000
 This molecule is an asymmetric top.
 Rotational symmetry number  1.
 Rotational temperatures (Kelvin)      0.33257     0.28602     0.15377
 Rotational constants (GHZ):           6.92962     5.95971     3.20409
 Zero-point vibrational energy     167613.0 (Joules/Mol)
                                   40.06047 (Kcal/Mol)
 Warning -- explicit consideration of   3 degrees of freedom as
           vibrations may cause significant error
 Vibrational temperatures:    541.39   575.44   817.80   989.10  1006.84
          (Kelvin)           1288.30  1399.22  1423.34  1439.17  1554.53
                             1619.30  1665.74  1798.13  1914.89  2027.20
                             2064.81  2175.88  2298.84  4567.09  4573.82
                             4577.53

 Zero-point correction=                           0.063840 (Hartree/Particle)
 Thermal correction to Energy=                    0.068010
 Thermal correction to Enthalpy=                  0.068954
 Thermal correction to Gibbs Free Energy=         0.035901
 Sum of electronic and zero-point Energies=           -263.603684
 Sum of electronic and thermal Energies=              -263.599515
 Sum of electronic and thermal Enthalpies=            -263.598570
 Sum of electronic and thermal Free Energies=         -263.631623

                     E (Thermal)             CV                S
                      KCal/Mol        Cal/Mol-Kelvin    Cal/Mol-Kelvin
 Total                   42.677             14.836             69.565
 Electronic               0.000              0.000              1.377
 Translational            0.889              2.981             39.017
 Rotational               0.889              2.981             25.300
 Vibrational             40.899              8.874              3.872
 Vibration     1          0.747              1.521              1.054
 Vibration     2          0.766              1.470              0.963
 Vibration     3          0.924              1.100              0.507

 Optimization completed.
    -- Stationary point found.
 Normal termination of Gaussian 09 at Tue Mar  6 16:48:14 2018.
