 Gaussian 09, Revision B.01,
 Gaussian 09:  EM64L-G09RevB.01 12-Aug-2010

 -------------------------------------------------
 #p Temperature=298.15 opt freq UB3LYP/aug-cc-pVDZ
 -------------------------------------------------

 -------------------------------------------
 Pyrimidine-4-N2+-UB3LYP-aug-cc-pVDZ-Triplet
 -------------------------------------------
 Symbolic Z-matrix:
 Charge =  1 Multiplicity = 3

 SCF Done:  E(UB3LYP) =  -372.843105529     A.U. after   21 cycles
 SCF Done:  E(UB3LYP) =  -372.858947186     A.U. after   18 cycles
 SCF Done:  E(UB3LYP) =  -372.859845870     A.U. after   16 cycles
 SCF Done:  E(UB3LYP) =  -372.859925050     A.U. after   15 cycles
 SCF Done:  E(UB3LYP) =  -372.859936280     A.U. after   14 cycles
 SCF Done:  E(UB3LYP) =  -372.859937623     A.U. after   22 cycles
 Optimization completed.
    -- Stationary point found.
 Normal termination of Gaussian 09 at Fri Jan 21 11:36:56 2005.

 ----------------------------------------------------------------------
 #P Geom=AllCheck Guess=TCheck SCRF=Check GenChk UB3LYP/Aug-CC-pVDZ Fre
 q
 ----------------------------------------------------------------------

 Pyrimidine-4-N2+-UB3LYP-aug-cc-pVDZ-Triplet
 -------------------------------------------
 Redundant internal coordinates taken from checkpoint file:
 Pyrimidine-4-N2+-UB3LYP-aug-cc-pVDZ-Triplet.chk
 Charge =  1 Multiplicity = 3

                         Standard orientation:
 ---------------------------------------------------------------------
 Center     Atomic      Atomic             Coordinates (Angstroms)
 Number     Number       Type             X           Y           Z
 ---------------------------------------------------------------------
      1          6           0        1.418453   -1.246269   -0.000189
      2          6           0       -0.541379    0.024126    0.000033
      3          6           0        0.155119    1.275554   -0.000096
      4          6           0        1.526907    1.157068    0.000064
      5          1           0        1.953210   -2.193324    0.000351
      6          7           0       -1.884057   -0.025742   -0.000158
      7          7           0       -3.023070   -0.053515    0.000149
      8          1           0        2.208720    2.010344    0.000163
      9          1           0       -0.352868    2.238209   -0.000139
     10          7           0        2.062603   -0.073379    0.000080
     11          7           0        0.106859   -1.178522    0.000037
 ---------------------------------------------------------------------

 SCF Done:  E(UB3LYP) =  -372.859937623     A.U. after    1 cycles

 The electronic state is 3-A.
 Alpha  occ. eigenvalues --  -14.68438 -14.65635 -14.63435 -14.60098 -10.52271
 Alpha  occ. eigenvalues --  -10.50933 -10.47240 -10.44295  -1.33939  -1.25433
 Alpha  occ. eigenvalues --   -1.15588  -1.07994  -0.99580  -0.91112  -0.84660
 Alpha  occ. eigenvalues --   -0.77986  -0.73414  -0.72150  -0.70271  -0.68189
 Alpha  occ. eigenvalues --   -0.67135  -0.66758  -0.64641  -0.57696  -0.57168
 Alpha  occ. eigenvalues --   -0.53083  -0.52461  -0.39422
 Alpha virt. eigenvalues --   -0.27287  -0.26427  -0.22973  -0.15122  -0.12206
 Alpha virt. eigenvalues --   -0.12138  -0.11402  -0.10720  -0.09726  -0.09674
 Alpha virt. eigenvalues --   -0.08619  -0.05864  -0.05528  -0.05430  -0.04512

  Beta  occ. eigenvalues --  -14.68387 -14.64701 -14.61501 -14.59147 -10.52041
  Beta  occ. eigenvalues --  -10.51035 -10.47166 -10.44024  -1.32965  -1.23251
  Beta  occ. eigenvalues --   -1.12892  -1.06699  -0.97950  -0.90133  -0.83806
  Beta  occ. eigenvalues --   -0.76968  -0.71031  -0.69686  -0.69678  -0.67415
  Beta  occ. eigenvalues --   -0.65337  -0.64377  -0.63573  -0.53847  -0.51641
  Beta  occ. eigenvalues --   -0.51070
  Beta virt. eigenvalues --   -0.39663  -0.30730  -0.26460  -0.25851  -0.19436
  Beta virt. eigenvalues --   -0.15006  -0.12098  -0.12005  -0.10528  -0.09946
  Beta virt. eigenvalues --   -0.09198  -0.08981  -0.08435  -0.05684  -0.05265

 Mulliken atomic charges:
              1
     1  C    0.689845
     2  C    0.281984
     3  C    1.638708
     4  C    0.178564
     5  H   -0.358870
     6  N    0.432983
     7  N   -0.571145
     8  H   -0.427935
     9  H   -0.593986
    10  N   -0.138535
    11  N   -0.131612
 Sum of Mulliken atomic charges =   1.00000

 Dipole moment (field-independent basis, Debye):
    X=              2.3108    Y=              1.4184    Z=             -0.0001  Tot=              2.7114
 Quadrupole moment (field-independent basis, Debye-Ang):
   XX=            -27.1961   YY=            -30.0828   ZZ=            -43.2592
   XY=             -1.5574   XZ=              0.0008   YZ=             -0.0003

  Exact polarizability: 128.696   7.337  71.831   0.001   0.000  37.302
 Approx polarizability: 271.265  28.511 125.306   0.000   0.002  56.223

                     1                      2                      3
                     A                      A                      A
 Frequencies --   144.3300               168.7785               256.4300
 Red. masses --     8.7390                 8.5386                12.0000
 Frc consts  --     0.1073                 0.1433                 0.4649
 IR Inten    --     0.0346                 0.2791                 0.7131

                     4                      5                      6
                     A                      A                      A
 Frequencies --   356.0946               412.2693               436.0983
 Red. masses --     3.6342                 3.2001                11.9888
 Frc consts  --     0.2715                 0.3205                 1.3434
 IR Inten    --    23.3393                 0.7366                44.2713

                     7                      8                      9
                     A                      A                      A
 Frequencies --   537.7343               605.1459               608.0012
 Red. masses --     9.3379                 7.9907                 6.9869
 Frc consts  --     1.5909                 1.7241                 1.5217
 IR Inten    --     2.8648                46.0763                19.1022

                    10                     11                     12
                     A                      A                      A
 Frequencies --   774.4664               783.3380               931.1442
 Red. masses --     5.8759                 1.3390                 1.4349
 Frc consts  --     2.0765                 0.4841                 0.7330
 IR Inten    --    11.8774                35.6673                 0.6189

                    13                     14                     15
                     A                      A                      A
 Frequencies --   940.2740               950.6574              1022.7954
 Red. masses --     1.2615                 8.5567                 2.6931
 Frc consts  --     0.6571                 4.5562                 1.6599
 IR Inten    --     3.7470                23.0305                29.3449

                    16                     17                     18
                     A                      A                      A
 Frequencies --  1142.7441              1243.7207              1272.9312
 Red. masses --     1.2471                 4.6274                 2.7949
 Frc consts  --     0.9595                 4.2173                 2.6683
 IR Inten    --     3.7659                 7.4885                10.5920

                    19                     20                     21
                     A                      A                      A
 Frequencies --  1281.4700              1378.7967              1409.0302
 Red. masses --     3.1627                 1.9813                 2.1151
 Frc consts  --     3.0601                 2.2192                 2.4741
 IR Inten    --     1.7564                 1.1855                24.4764

                    22                     23                     24
                     A                      A                      A
 Frequencies --  1484.8412              1581.5655              2141.9001
 Red. masses --     6.4732                 7.6379                13.9125
 Frc consts  --     8.4087                11.2564                37.6058
 IR Inten    --    64.0186               259.2734               234.5914

                    25                     26                     27
                     A                      A                      A
 Frequencies --  3183.6768              3232.8297              3245.6923
 Red. masses --     1.0889                 1.0977                 1.1002
 Frc consts  --     6.5028                 6.7593                 6.8288
 IR Inten    --    39.1085                17.4554                19.0764

 - Thermochemistry -
 -------------------
 Temperature   298.150 Kelvin.  Pressure   1.00000 Atm.
 Atom     1 has atomic number  6 and mass  12.00000

 Molecular mass:   107.03577 amu.
 Principal axes and moments of inertia in atomic units:
                           1         2         3
     Eigenvalues --   313.321541078.801131392.12266
           X            1.00000  -0.00259   0.00000
           Y            0.00259   1.00000  -0.00001
           Z            0.00000   0.00001   1.00000
 This molecule is an asymmetric top.
 Rotational symmetry number  1.
 Rotational temperatures (Kelvin)      0.27644     0.08029     0.06222
 Rotational constants (GHZ):           5.76003     1.67291     1.29640
 Zero-point vibrational energy     188571.9 (Joules/Mol)
                                   45.06976 (Kcal/Mol)
 Warning -- explicit consideration of   9 degrees of freedom as
           vibrations may cause significant error
 Vibrational temperatures:    207.66   242.83   368.95   512.34   593.16
          (Kelvin)            627.45   773.68   870.67   874.78  1114.28
                             1127.05  1339.71  1352.84  1367.78  1471.57
                             1644.15  1789.43  1831.46  1843.75  1983.78
                             2027.28  2136.35  2275.52  3081.71  4580.60
                             4651.32  4669.82

 Zero-point correction=                           0.071823 (Hartree/Particle)
 Thermal correction to Energy=                    0.078262
 Thermal correction to Enthalpy=                  0.079207
 Thermal correction to Gibbs Free Energy=         0.040212
 Sum of electronic and zero-point Energies=           -372.788114
 Sum of electronic and thermal Energies=              -372.781675
 Sum of electronic and thermal Enthalpies=            -372.780731
 Sum of electronic and thermal Free Energies=         -372.819725

                     E (Thermal)             CV                S
                      KCal/Mol        Cal/Mol-Kelvin    Cal/Mol-Kelvin
 Total                   49.110             23.271             82.071
 Electronic               0.000              0.000              2.183
 Translational            0.889              2.981             39.921
 Rotational               0.889              2.981             27.645
 Vibrational             47.333             17.309             12.322
 Vibration     1          0.616              1.909              2.746
 Vibration     2          0.625              1.881              2.449
 Vibration     3          0.666              1.752              1.686
 Vibration     4          0.732              1.563              1.139
 Vibration     5          0.776              1.444              0.919
 Vibration     6          0.797              1.392              0.839
 Vibration     7          0.893              1.167              0.570
 Vibration     8          0.964              1.021              0.441
 Vibration     9          0.967              1.015              0.436

 Optimization completed.
    -- Stationary point found.
 Normal termination of Gaussian 09 at Fri Jan 21 11:42:23 2005.
