 Gaussian 09, Revision B.01,
 Gaussian 09:  EM64L-G09RevB.01 12-Aug-2010

 -------------------------------------------------
 #p Temperature=298.15 opt freq UB3LYP/aug-cc-pVDZ
 -------------------------------------------------

 ----------------------------------------
 Pyrimidine-5+-UB3LYP-aug-cc-pVDZ-Triplet
 ----------------------------------------
 Symbolic Z-matrix:
 Charge =  1 Multiplicity = 3

 SCF Done:  E(UB3LYP) =  -263.300635074     A.U. after   16 cycles
 SCF Done:  E(UB3LYP) =  -263.321894109     A.U. after   16 cycles
 SCF Done:  E(UB3LYP) =  -263.323395347     A.U. after   14 cycles
 SCF Done:  E(UB3LYP) =  -263.323424364     A.U. after   18 cycles
 Optimization completed.
    -- Stationary point found.
 Normal termination of Gaussian 09 at Fri Jan 21 12:12:20 2005.

 ----------------------------------------------------------------------
 #P Geom=AllCheck Guess=TCheck SCRF=Check GenChk UB3LYP/Aug-CC-pVDZ Fre
 q
 ----------------------------------------------------------------------

 Pyrimidine-5+-UB3LYP-aug-cc-pVDZ-Triplet
 ----------------------------------------
 Redundant internal coordinates taken from checkpoint file:
 Pyrimidine-5+-UB3LYP-aug-cc-pVDZ-Triplet.chk
 Charge =  1 Multiplicity = 3

                         Standard orientation:
 ---------------------------------------------------------------------
 Center     Atomic      Atomic             Coordinates (Angstroms)
 Number     Number       Type             X           Y           Z
 ---------------------------------------------------------------------
      1          6           0        1.202945   -0.704351   -0.000072
      2          6           0       -0.000268   -1.398456    0.000031
      3          6           0       -1.203203   -0.703950   -0.000022
      4          6           0        0.000236    1.339872   -0.000036
      5          1           0        2.192487   -1.169949    0.000140
      6          1           0        0.000462    2.427787    0.000127
      7          1           0       -2.193039   -1.169092    0.000109
      8          7           0       -1.118968    0.622541   -0.000003
      9          7           0        1.119228    0.622112    0.000034
 ---------------------------------------------------------------------

 SCF Done:  E(UB3LYP) =  -263.323424364     A.U. after    1 cycles

 The electronic state is 3-A.
 Alpha  occ. eigenvalues --  -14.65157 -14.65155 -10.53206 -10.50163 -10.50162
 Alpha  occ. eigenvalues --  -10.47968  -1.28275  -1.17426  -1.06115  -0.92540
 Alpha  occ. eigenvalues --   -0.92070  -0.79675  -0.78862  -0.70279  -0.69722
 Alpha  occ. eigenvalues --   -0.69248  -0.63578  -0.59177  -0.54135  -0.53926
 Alpha  occ. eigenvalues --   -0.50392
 Alpha virt. eigenvalues --   -0.29831  -0.28460  -0.15213  -0.13541  -0.12223
 Alpha virt. eigenvalues --   -0.12202  -0.11513  -0.09950  -0.09457  -0.08991
 Alpha virt. eigenvalues --   -0.06009  -0.05804  -0.04352  -0.03401  -0.02477

  Beta  occ. eigenvalues --  -14.63848 -14.63847 -10.53296 -10.50217 -10.50215
  Beta  occ. eigenvalues --  -10.46205  -1.26208  -1.14862  -1.04489  -0.91314
  Beta  occ. eigenvalues --   -0.89427  -0.78366  -0.77203  -0.69314  -0.68960
  Beta  occ. eigenvalues --   -0.67177  -0.58009  -0.55158  -0.52924
  Beta virt. eigenvalues --   -0.41331  -0.33281  -0.29544  -0.27377  -0.15120
  Beta virt. eigenvalues --   -0.12422  -0.12133  -0.12109  -0.11308  -0.09430
  Beta virt. eigenvalues --   -0.09371  -0.08151  -0.05982  -0.05857  -0.04268

 Mulliken atomic charges:
              1
     1  C    0.733617
     2  C    0.124926
     3  C    0.733470
     4  C    0.581062
     5  H   -0.331502
     6  H   -0.267514
     7  H   -0.331406
     8  N   -0.121305
     9  N   -0.121347
 Sum of Mulliken atomic charges =   1.00000

 Dipole moment (field-independent basis, Debye):
    X=             -0.0001    Y=             -0.0766    Z=              0.0001  Tot=              0.0766
 Quadrupole moment (field-independent basis, Debye-Ang):
   XX=            -21.3936   YY=            -21.4489   ZZ=            -32.3806
   XY=              0.0000   XZ=              0.0000   YZ=              0.0000

  Exact polarizability:  74.590  -0.002  62.029   0.000   0.000  29.708
 Approx polarizability: 170.975  -0.010 118.101   0.000  -0.001  44.421

                     1                      2                      3
                     A                      A                      A
 Frequencies --   397.6638               431.0454               565.0288
 Red. masses --     3.4939                 4.2365                 2.7458
 Frc consts  --     0.3255                 0.4638                 0.5165
 IR Inten    --     2.5507                 0.0000                56.3763

                     4                      5                      6
                     A                      A                      A
 Frequencies --   592.5612               642.6487               891.9257
 Red. masses --     8.4566                 8.2925                 1.5537
 Frc consts  --     1.7495                 2.0178                 0.7282
 IR Inten    --   107.9615                11.3584                23.4633

                     7                      8                      9
                     A                      A                      A
 Frequencies --   895.2796               936.3705               944.8674
 Red. masses --     1.3850                 1.4025                 9.4023
 Frc consts  --     0.6541                 0.7245                 4.9457
 IR Inten    --     0.0238                 0.0198                13.1408

                    10                     11                     12
                     A                      A                      A
 Frequencies --  1062.2616              1103.7246              1119.1841
 Red. masses --     3.2866                 2.4087                 2.4190
 Frc consts  --     2.1850                 1.7288                 1.7852
 IR Inten    --     4.3299                 5.6482                 0.0310

                    13                     14                     15
                     A                      A                      A
 Frequencies --  1201.5722              1282.1922              1383.0106
 Red. masses --     4.2469                 1.2646                 2.0998
 Frc consts  --     3.6126                 1.2249                 2.3663
 IR Inten    --    40.3844                 5.9860                39.4712

                    16                     17                     18
                     A                      A                      A
 Frequencies --  1394.0370              1522.3165              1551.1536
 Red. masses --     1.7962                 8.2614                10.5192
 Frc consts  --     2.0566                11.2801                14.9122
 IR Inten    --     0.1648                53.3796                20.9453

                    19                     20                     21
                     A                      A                      A
 Frequencies --  3175.4718              3177.1785              3247.3608
 Red. masses --     1.0928                 1.0934                 1.1014
 Frc consts  --     6.4924                 6.5029                 6.8430
 IR Inten    --    34.5509                98.5315                33.4830

 - Thermochemistry -
 -------------------
 Temperature   298.150 Kelvin.  Pressure   1.00000 Atm.
 Atom     1 has atomic number  6 and mass  12.00000

 Molecular mass:    79.02962 amu.
 Principal axes and moments of inertia in atomic units:
                           1         2         3
     Eigenvalues --   273.02493 283.91140 556.93633
           X            1.00000  -0.00004   0.00000
           Y            0.00004   1.00000   0.00000
           Z            0.00000   0.00000   1.00000
 This molecule is an asymmetric top.
 Rotational symmetry number  1.
 Rotational temperatures (Kelvin)      0.31724     0.30507     0.15552
 Rotational constants (GHZ):           6.61017     6.35671     3.24048
 Zero-point vibrational energy     164587.3 (Joules/Mol)
                                   39.33732 (Kcal/Mol)
 Warning -- explicit consideration of   4 degrees of freedom as
           vibrations may cause significant error
 Vibrational temperatures:    572.15   620.18   812.95   852.56   924.63
          (Kelvin)           1283.28  1288.11  1347.23  1359.45  1528.36
                             1588.01  1610.25  1728.79  1844.79  1989.84
                             2005.71  2190.27  2231.76  4568.79  4571.25
                             4672.22

 Zero-point correction=                           0.062688 (Hartree/Particle)
 Thermal correction to Energy=                    0.066927
 Thermal correction to Enthalpy=                  0.067872
 Thermal correction to Gibbs Free Energy=         0.034375
 Sum of electronic and zero-point Energies=           -263.260736
 Sum of electronic and thermal Energies=              -263.256497
 Sum of electronic and thermal Enthalpies=            -263.255553
 Sum of electronic and thermal Free Energies=         -263.289050

                     E (Thermal)             CV                S
                      KCal/Mol        Cal/Mol-Kelvin    Cal/Mol-Kelvin
 Total                   41.998             15.416             70.500
 Electronic               0.000              0.000              2.183
 Translational            0.889              2.981             39.017
 Rotational               0.889              2.981             25.271
 Vibrational             40.220              9.454              4.029
 Vibration     1          0.764              1.475              0.971
 Vibration     2          0.792              1.403              0.855
 Vibration     3          0.921              1.107              0.514
 Vibration     4          0.950              1.048              0.463

 Optimization completed.
    -- Stationary point found.
 Normal termination of Gaussian 09 at Fri Jan 21 12:14:16 2005.
