 Gaussian 09, Revision B.01,
 Gaussian 09:  EM64L-G09RevB.01 12-Aug-2010

 -------------------------------------------------
 #p Temperature=298.15 opt freq UB3LYP/aug-cc-pVDZ
 -------------------------------------------------

 --------------------------------------
 Pyridine-4+-UB3LYP-aug-cc-pVDZ-Singlet
 --------------------------------------
 Symbolic Z-matrix:
 Charge =  1 Multiplicity = 1

 SCF Done:  E(UB3LYP) =  -247.271340339     A.U. after   16 cycles
 SCF Done:  E(UB3LYP) =  -247.304068021     A.U. after   14 cycles
 SCF Done:  E(UB3LYP) =  -247.313386489     A.U. after   14 cycles
 SCF Done:  E(UB3LYP) =  -247.314379705     A.U. after   11 cycles
 SCF Done:  E(UB3LYP) =  -247.314438920     A.U. after   11 cycles
 SCF Done:  E(UB3LYP) =  -247.314440750     A.U. after   16 cycles
 Optimization completed.
    -- Stationary point found.
 Normal termination of Gaussian 09 at Tue Mar  6 10:04:51 2018.

 ----------------------------------------------------------------------
 #P Geom=AllCheck Guess=TCheck SCRF=Check GenChk UB3LYP/Aug-CC-pVDZ Fre
 q
 ----------------------------------------------------------------------

 Pyridine-4+-UB3LYP-aug-cc-pVDZ-Singlet
 --------------------------------------
 Redundant internal coordinates taken from checkpoint file:
 Pyridine-4+-UB3LYP-aug-cc-pVDZ-Singlet.chk
 Charge =  1 Multiplicity = 1

                         Standard orientation:
 ---------------------------------------------------------------------
 Center     Atomic      Atomic             Coordinates (Angstroms)
 Number     Number       Type             X           Y           Z
 ---------------------------------------------------------------------
      1          6           0        1.143141    0.668744    0.000124
      2          6           0        1.245147   -0.793422   -0.000113
      3          6           0       -0.000131   -1.246454    0.000005
      4          6           0       -1.245320   -0.793271    0.000109
      5          6           0       -1.142970    0.668960   -0.000131
      6          1           0        2.096152    1.206009    0.000155
      7          1           0        2.215786   -1.284726   -0.000165
      8          1           0       -2.095903    1.206345   -0.000147
      9          1           0       -2.216069   -1.284303    0.000160
     10          7           0        0.000120    1.304191    0.000004
 ---------------------------------------------------------------------

 SCF Done:  E(UB3LYP) =  -247.314440750     A.U. after    1 cycles

 The electronic state is 1-A.
 Alpha  occ. eigenvalues --  -14.57846 -10.51938 -10.48495 -10.48492 -10.46420
 Alpha  occ. eigenvalues --  -10.46418  -1.20629  -1.07196  -1.02154  -0.89572
 Alpha  occ. eigenvalues --   -0.84944  -0.75194  -0.74778  -0.70867  -0.68397
 Alpha  occ. eigenvalues --   -0.65176  -0.62730  -0.55160  -0.50652  -0.50192
 Alpha virt. eigenvalues --   -0.36806  -0.27273  -0.24994  -0.15232  -0.13064
 Alpha virt. eigenvalues --   -0.11407  -0.11147  -0.10790  -0.09744  -0.09729
 Alpha virt. eigenvalues --   -0.08188  -0.06363  -0.05327  -0.05128  -0.05093

  Beta  occ. eigenvalues --  -14.57846 -10.51938 -10.48495 -10.48492 -10.46420
  Beta  occ. eigenvalues --  -10.46418  -1.20629  -1.07196  -1.02154  -0.89572
  Beta  occ. eigenvalues --   -0.84944  -0.75194  -0.74778  -0.70867  -0.68397
  Beta  occ. eigenvalues --   -0.65176  -0.62730  -0.55160  -0.50652  -0.50192
  Beta virt. eigenvalues --   -0.36806  -0.27273  -0.24994  -0.15232  -0.13064
  Beta virt. eigenvalues --   -0.11407  -0.11147  -0.10790  -0.09744  -0.09729
  Beta virt. eigenvalues --   -0.08188  -0.06363  -0.05327  -0.05128  -0.05093

 Mulliken atomic charges:
              1
     1  C    0.229318
     2  C    1.375459
     3  C   -0.254967
     4  C    1.375483
     5  C    0.229284
     6  H   -0.461263
     7  H   -0.528702
     8  H   -0.461262
     9  H   -0.528792
    10  N    0.025443
 Sum of Mulliken atomic charges =   1.00000

 Dipole moment (field-independent basis, Debye):
    X=             -0.0004    Y=             -2.4064    Z=              0.0000  Tot=              2.4064
 Quadrupole moment (field-independent basis, Debye-Ang):
   XX=            -13.4048   YY=            -26.0543   ZZ=            -34.1582
   XY=             -0.0010   XZ=             -0.0001   YZ=              0.0000

  Exact polarizability:  71.311   0.000  68.605  -0.001   0.000  32.108
 Approx polarizability: 134.351   0.003 174.275   0.001   0.000  48.354

                     1                      2                      3
                     A                      A                      A
 Frequencies --   314.0501               444.0195               458.5646
 Red. masses --     1.3140                 2.7602                 3.2106
 Frc consts  --     0.0764                 0.3206                 0.3978
 IR Inten    --     0.0001                 0.0001                24.6607

                     4                      5                      6
                     A                      A                      A
 Frequencies --   481.0783               587.8150               667.7837
 Red. masses --     6.6717                 3.4309                 6.6854
 Frc consts  --     0.9097                 0.6985                 1.7565
 IR Inten    --    19.5892                13.3239                58.1688

                     7                      8                      9
                     A                      A                      A
 Frequencies --   738.8586               823.1086               892.8976
 Red. masses --     1.4153                 6.7953                 1.4037
 Frc consts  --     0.4552                 2.7125                 0.6594
 IR Inten    --    85.4048                95.9122                 4.0258

                    10                     11                     12
                     A                      A                      A
 Frequencies --   907.1063               918.4331               976.9970
 Red. masses --     4.7693                 1.3346                 2.2191
 Frc consts  --     2.3122                 0.6633                 1.2480
 IR Inten    --    32.7381                 0.0000                 0.0080

                    13                     14                     15
                     A                      A                      A
 Frequencies --  1067.7523              1072.4870              1211.0079
 Red. masses --     1.2577                 1.9627                 1.3623
 Frc consts  --     0.8448                 1.3301                 1.1771
 IR Inten    --    52.1760                27.9699                 2.4671

                    16                     17                     18
                     A                      A                      A
 Frequencies --  1264.4255              1330.5760              1443.3395
 Red. masses --     1.1870                 6.1025                 2.8424
 Frc consts  --     1.1181                 6.3656                 3.4888
 IR Inten    --     6.9160               114.5584                24.1932

                    19                     20                     21
                     A                      A                      A
 Frequencies --  1470.5937              1806.8401              3169.8010
 Red. masses --     5.7890                 9.3105                 1.0874
 Frc consts  --     7.3763                17.9086                 6.4375
 IR Inten    --     7.5580                46.2552                39.7172

                    22                     23                     24
                     A                      A                      A
 Frequencies --  3174.2141              3240.2664              3243.5466
 Red. masses --     1.0945                 1.0990                 1.1006
 Frc consts  --     6.4973                 6.7985                 6.8221
 IR Inten    --    52.3153               225.8720                34.9466

 - Thermochemistry -
 -------------------
 Temperature   298.150 Kelvin.  Pressure   1.00000 Atm.
 Atom     1 has atomic number  6 and mass  12.00000

 Molecular mass:    78.03437 amu.
 Principal axes and moments of inertia in atomic units:
                           1         2         3
     Eigenvalues --   266.26576 311.84445 578.11020
           X            1.00000  -0.00008   0.00000
           Y            0.00008   1.00000   0.00000
           Z            0.00000   0.00000   1.00000
 This molecule is an asymmetric top.
 Rotational symmetry number  1.
 Rotational temperatures (Kelvin)      0.32529     0.27775     0.14982
 Rotational constants (GHZ):           6.77797     5.78731     3.12179
 Zero-point vibrational energy     189641.4 (Joules/Mol)
                                   45.32538 (Kcal/Mol)
 Warning -- explicit consideration of   5 degrees of freedom as
           vibrations may cause significant error
 Vibrational temperatures:    451.85   638.84   659.77   692.16   845.73
          (Kelvin)            960.79  1063.05  1184.27  1284.68  1305.12
                             1321.42  1405.68  1536.26  1543.07  1742.37
                             1819.22  1914.40  2076.64  2115.85  2599.64
                             4560.63  4566.98  4662.01  4666.73

 Zero-point correction=                           0.072231 (Hartree/Particle)
 Thermal correction to Energy=                    0.077000
 Thermal correction to Enthalpy=                  0.077944
 Thermal correction to Gibbs Free Energy=         0.044667
 Sum of electronic and zero-point Energies=           -247.242210
 Sum of electronic and thermal Energies=              -247.237441
 Sum of electronic and thermal Enthalpies=            -247.236497
 Sum of electronic and thermal Free Energies=         -247.269774

                     E (Thermal)             CV                S
                      KCal/Mol        Cal/Mol-Kelvin    Cal/Mol-Kelvin
 Total                   48.318             18.126             70.037
 Electronic               0.000              0.000              0.000
 Translational            0.889              2.981             38.979
 Rotational               0.889              2.981             25.377
 Vibrational             46.541             12.164              5.682
 Vibration     1          0.702              1.647              1.341
 Vibration     2          0.804              1.374              0.814
 Vibration     3          0.817              1.342              0.770
 Vibration     4          0.837              1.292              0.707
 Vibration     5          0.945              1.058              0.471

 Optimization completed.
    -- Stationary point found.
 Normal termination of Gaussian 09 at Tue Mar  6 10:07:12 2018.
