 Gaussian 09, Revision B.01,
 Gaussian 09:  EM64L-G09RevB.01 12-Aug-2010

 -------------------------------------------------
 #p Temperature=298.15 opt freq UB3LYP/aug-cc-pVDZ
 -------------------------------------------------

 -------------------------------------------
 Pyrimidine-2-N2+-UB3LYP-aug-cc-pVDZ-Triplet
 -------------------------------------------
 Symbolic Z-matrix:
 Charge =  1 Multiplicity = 3

 SCF Done:  E(UB3LYP) =  -372.828482928     A.U. after   21 cycles
 SCF Done:  E(UB3LYP) =  -372.852101217     A.U. after   18 cycles
 SCF Done:  E(UB3LYP) =  -372.855664159     A.U. after   16 cycles
 SCF Done:  E(UB3LYP) =  -372.855712791     A.U. after   18 cycles
 SCF Done:  E(UB3LYP) =  -372.855770151     A.U. after   18 cycles
 SCF Done:  E(UB3LYP) =  -372.855770532     A.U. after   12 cycles
 SCF Done:  E(UB3LYP) =  -372.855770875     A.U. after   11 cycles
 Optimization completed.
    -- Stationary point found.
 Normal termination of Gaussian 09 at Fri Jan 21 11:08:20 2005.

 ----------------------------------------------------------------------
 #P Geom=AllCheck Guess=TCheck SCRF=Check GenChk UB3LYP/Aug-CC-pVDZ Fre
 q
 ----------------------------------------------------------------------

 Pyrimidine-2-N2+-UB3LYP-aug-cc-pVDZ-Triplet
 -------------------------------------------
 Redundant internal coordinates taken from checkpoint file:
 Pyrimidine-2-N2+-UB3LYP-aug-cc-pVDZ-Triplet.chk
 Charge =  1 Multiplicity = 3

                         Standard orientation:
 ---------------------------------------------------------------------
 Center     Atomic      Atomic             Coordinates (Angstroms)
 Number     Number       Type             X           Y           Z
 ---------------------------------------------------------------------
      1          6           0        0.607284   -0.000082    0.000003
      2          7           0        1.938311   -0.000063   -0.000565
      3          7           0        3.083305    0.000029    0.000375
      4          6           0       -2.188109    0.000037   -0.000084
      5          1           0       -3.275115    0.000099   -0.000177
      6          6           0       -1.421132   -1.183760    0.000082
      7          1           0       -1.888330   -2.174487    0.000215
      8          7           0       -0.111611   -1.146007    0.000042
      9          6           0       -1.420999    1.183818    0.000060
     10          1           0       -1.888233    2.174531    0.000227
     11          7           0       -0.111517    1.146010    0.000058
 ---------------------------------------------------------------------

 SCF Done:  E(UB3LYP) =  -372.855770875     A.U. after    1 cycles

 The electronic state is 3-A.
 Alpha  occ. eigenvalues --  -14.68297 -14.65838 -14.62389 -14.62387 -10.55985
 Alpha  occ. eigenvalues --  -10.47576 -10.47575 -10.42814  -1.33952  -1.25968
 Alpha  occ. eigenvalues --   -1.15840  -1.09087  -0.98801  -0.90726  -0.87421
 Alpha  occ. eigenvalues --   -0.77318  -0.73637  -0.73155  -0.67666  -0.67407
 Alpha  occ. eigenvalues --   -0.66715  -0.65949  -0.65308  -0.58909  -0.58140
 Alpha  occ. eigenvalues --   -0.52472  -0.52043  -0.39759
 Alpha virt. eigenvalues --   -0.28259  -0.27300  -0.21741  -0.15049  -0.12403
 Alpha virt. eigenvalues --   -0.11777  -0.11043  -0.10599  -0.09377  -0.09172
 Alpha virt. eigenvalues --   -0.08502  -0.06303  -0.05359  -0.05313  -0.04345

  Beta  occ. eigenvalues --  -14.68245 -14.64818 -14.61004 -14.61004 -10.55762
  Beta  occ. eigenvalues --  -10.47740 -10.47739 -10.42265  -1.32868  -1.24016
  Beta  occ. eigenvalues --   -1.13216  -1.07940  -0.97338  -0.89869  -0.85877
  Beta  occ. eigenvalues --   -0.76294  -0.72549  -0.70630  -0.66569  -0.65951
  Beta  occ. eigenvalues --   -0.65050  -0.63571  -0.63369  -0.55667  -0.52825
  Beta  occ. eigenvalues --   -0.50021
  Beta virt. eigenvalues --   -0.40242  -0.30469  -0.27274  -0.26723  -0.18646
  Beta virt. eigenvalues --   -0.14926  -0.12221  -0.11692  -0.10248  -0.10008
  Beta virt. eigenvalues --   -0.09029  -0.08221  -0.07954  -0.06047  -0.05361

 Mulliken atomic charges:
              1
     1  C    0.353837
     2  N    0.405415
     3  N   -0.426915
     4  C    1.325474
     5  H   -0.567945
     6  C    0.545136
     7  H   -0.486335
     8  N   -0.103677
     9  C    0.545108
    10  H   -0.486291
    11  N   -0.103807
 Sum of Mulliken atomic charges =   1.00000

 Dipole moment (field-independent basis, Debye):
    X=             -3.3333    Y=             -0.0001    Z=              0.0000  Tot=              3.3333
 Quadrupole moment (field-independent basis, Debye-Ang):
   XX=            -22.4638   YY=            -33.2115   ZZ=            -43.1760
   XY=             -0.0006   XZ=             -0.0011   YZ=              0.0000

  Exact polarizability: 127.125   0.000  83.732   0.001   0.000  37.177
 Approx polarizability: 227.662   0.004 185.991   0.008   0.000  56.000

                     1                      2                      3
                     A                      A                      A
 Frequencies --   128.1655               144.9671               164.1442
 Red. masses --    13.0313                 6.7502                 9.3107
 Frc consts  --     0.1261                 0.0836                 0.1478
 IR Inten    --     0.0966                 1.1213                 0.0020

                     4                      5                      6
                     A                      A                      A
 Frequencies --   411.1569               443.9823               490.5993
 Red. masses --     3.3875                 4.3607                11.0078
 Frc consts  --     0.3374                 0.5064                 1.5610
 IR Inten    --     4.0461                 0.0000                 0.8441

                     7                      8                      9
                     A                      A                      A
 Frequencies --   496.0317               510.4731               610.2598
 Red. masses --     4.0791                 9.8706                 9.0568
 Frc consts  --     0.5913                 1.5154                 1.9873
 IR Inten    --    43.7710                51.9311                81.8017

                    10                     11                     12
                     A                      A                      A
 Frequencies --   783.3264               798.7529               882.8670
 Red. masses --     1.2331                 7.2563                 1.3671
 Frc consts  --     0.4458                 2.7277                 0.6278
 IR Inten    --    38.6666                 0.0979                 0.0000

                    13                     14                     15
                     A                      A                      A
 Frequencies --   941.6738               947.7142              1048.7750
 Red. masses --     7.6630                 1.5667                 2.2850
 Frc consts  --     4.0036                 0.8291                 1.4808
 IR Inten    --     0.2627                 2.4257                 3.0742

                    16                     17                     18
                     A                      A                      A
 Frequencies --  1075.1600              1183.1067              1284.0973
 Red. masses --     1.5931                 2.0501                 2.2342
 Frc consts  --     1.0850                 1.6907                 2.1706
 IR Inten    --     2.4551                 0.2271                73.0317

                    19                     20                     21
                     A                      A                      A
 Frequencies --  1312.0570              1387.8409              1411.3160
 Red. masses --     2.2535                 3.4841                 3.8477
 Frc consts  --     2.2857                 3.9539                 4.5154
 IR Inten    --     8.8527                73.3274                83.2192

                    22                     23                     24
                     A                      A                      A
 Frequencies --  1465.9434              1583.5098              2148.8043
 Red. masses --     3.7980                11.0667                13.8853
 Frc consts  --     4.8089                16.3498                37.7744
 IR Inten    --     9.0848               149.4289               146.5905

                    25                     26                     27
                     A                      A                      A
 Frequencies --  3151.8057              3151.9970              3251.4211
 Red. masses --     1.0895                 1.0893                 1.0963
 Frc consts  --     6.3765                 6.3765                 6.8288
 IR Inten    --    59.2817                20.5989                24.7200

 - Thermochemistry -
 -------------------
 Temperature   298.150 Kelvin.  Pressure   1.00000 Atm.
 Atom     1 has atomic number  6 and mass  12.00000

 Molecular mass:   107.03577 amu.
 Principal axes and moments of inertia in atomic units:
                           1         2         3
     Eigenvalues --   285.488751121.194871406.68357
           X            1.00000   0.00000   0.00000
           Y            0.00000   1.00000   0.00000
           Z            0.00000   0.00000   1.00000
 This molecule is an asymmetric top.
 Rotational symmetry number  1.
 Rotational temperatures (Kelvin)      0.30339     0.07725     0.06157
 Rotational constants (GHZ):           6.32158     1.60966     1.28298
 Zero-point vibrational energy     186676.9 (Joules/Mol)
                                   44.61686 (Kcal/Mol)
 Warning -- explicit consideration of   9 degrees of freedom as
           vibrations may cause significant error
 Vibrational temperatures:    184.40   208.58   236.17   591.56   638.79
          (Kelvin)            705.86   713.68   734.46   878.03  1127.03
                             1149.23  1270.25  1354.86  1363.55  1508.95
                             1546.91  1702.22  1847.53  1887.76  1996.79
                             2030.57  2109.16  2278.31  3091.65  4534.74
                             4535.01  4678.06

 Zero-point correction=                           0.071101 (Hartree/Particle)
 Thermal correction to Energy=                    0.077718
 Thermal correction to Enthalpy=                  0.078662
 Thermal correction to Gibbs Free Energy=         0.039138
 Sum of electronic and zero-point Energies=           -372.784669
 Sum of electronic and thermal Energies=              -372.778053
 Sum of electronic and thermal Enthalpies=            -372.777109
 Sum of electronic and thermal Free Energies=         -372.816633

                     E (Thermal)             CV                S
                      KCal/Mol        Cal/Mol-Kelvin    Cal/Mol-Kelvin
 Total                   48.769             23.509             83.185
 Electronic               0.000              0.000              2.183
 Translational            0.889              2.981             39.921
 Rotational               0.889              2.981             27.601
 Vibrational             46.991             17.548             13.480
 Vibration     1          0.611              1.925              2.973
 Vibration     2          0.616              1.908              2.737
 Vibration     3          0.623              1.886              2.501
 Vibration     4          0.775              1.446              0.923
 Vibration     5          0.803              1.374              0.814
 Vibration     6          0.846              1.271              0.682
 Vibration     7          0.852              1.259              0.668
 Vibration     8          0.866              1.227              0.632
 Vibration     9          0.969              1.010              0.432

 Optimization completed.
    -- Stationary point found.
 Normal termination of Gaussian 09 at Fri Jan 21 11:13:46 2005.
