 Gaussian 09, Revision B.01,
 Gaussian 09:  EM64L-G09RevB.01 12-Aug-2010

 -------------------------------------------------
 #p Temperature=298.15 opt freq UB3LYP/aug-cc-pVDZ
 -------------------------------------------------

 -----------------------------------------
 Pyridine-4-N2+-UB3LYP-aug-cc-pVDZ-Triplet
 -----------------------------------------
 Symbolic Z-matrix:
 Charge =  1 Multiplicity = 3

 SCF Done:  E(UB3LYP) =  -356.809603814     A.U. after   21 cycles
 SCF Done:  E(UB3LYP) =  -356.821927285     A.U. after   18 cycles
 SCF Done:  E(UB3LYP) =  -356.822940761     A.U. after   15 cycles
 SCF Done:  E(UB3LYP) =  -356.822963117     A.U. after   13 cycles
 SCF Done:  E(UB3LYP) =  -356.822963906     A.U. after   11 cycles
 Optimization completed.
    -- Stationary point found.
 Normal termination of Gaussian 09 at Fri Jan 21 10:37:18 2005.

 ----------------------------------------------------------------------
 #P Geom=AllCheck Guess=TCheck SCRF=Check GenChk UB3LYP/Aug-CC-pVDZ Fre
 q
 ----------------------------------------------------------------------

 Pyridine-4-N2+-UB3LYP-aug-cc-pVDZ-Triplet
 -----------------------------------------
 Redundant internal coordinates taken from checkpoint file:
 Pyridine-4-N2+-UB3LYP-aug-cc-pVDZ-Triplet.chk
 Charge =  1 Multiplicity = 3

                         Standard orientation:
 ---------------------------------------------------------------------
 Center     Atomic      Atomic             Coordinates (Angstroms)
 Number     Number       Type             X           Y           Z
 ---------------------------------------------------------------------
      1          6           0       -1.522222   -1.216304    0.000021
      2          6           0       -0.141514   -1.249620   -0.000009
      3          6           0        0.564040    0.000003   -0.000008
      4          6           0       -0.141513    1.249615    0.000051
      5          6           0       -1.522227    1.216301   -0.000035
      6          1           0       -2.161988   -2.099151    0.000033
      7          1           0        0.376343   -2.207038    0.000012
      8          7           0        1.904769   -0.000002    0.000228
      9          7           0        3.045379    0.000003   -0.000192
     10          1           0       -2.161999    2.099164   -0.000061
     11          1           0        0.376332    2.207050    0.000084
     12          7           0       -2.071301   -0.000001   -0.000062
 ---------------------------------------------------------------------

 SCF Done:  E(UB3LYP) =  -356.822963906     A.U. after    1 cycles

 The electronic state is 3-A.
 Alpha  occ. eigenvalues --  -14.66938 -14.64397 -14.63657 -10.47950 -10.46229
 Alpha  occ. eigenvalues --  -10.46226 -10.42896 -10.42895  -1.32142  -1.22063
 Alpha  occ. eigenvalues --   -1.09164  -1.01632  -0.96061  -0.88074  -0.80921
 Alpha  occ. eigenvalues --   -0.74630  -0.72882  -0.70034  -0.68895  -0.67880
 Alpha  occ. eigenvalues --   -0.65525  -0.65240  -0.64684  -0.59498  -0.55256
 Alpha  occ. eigenvalues --   -0.53079  -0.50105  -0.37290
 Alpha virt. eigenvalues --   -0.25518  -0.24073  -0.21736  -0.14878  -0.12289
 Alpha virt. eigenvalues --   -0.12063  -0.10991  -0.09683  -0.09408  -0.09397
 Alpha virt. eigenvalues --   -0.09117  -0.05979  -0.05958  -0.05103  -0.04922

  Beta  occ. eigenvalues --  -14.66864 -14.62761 -14.62016 -10.47810 -10.46209
  Beta  occ. eigenvalues --  -10.46205 -10.42561 -10.42559  -1.31211  -1.18548
  Beta  occ. eigenvalues --   -1.07816  -1.00626  -0.93883  -0.87106  -0.80182
  Beta  occ. eigenvalues --   -0.73671  -0.69016  -0.68148  -0.67521  -0.67199
  Beta  occ. eigenvalues --   -0.63969  -0.63692  -0.62308  -0.59003  -0.49829
  Beta  occ. eigenvalues --   -0.48700
  Beta virt. eigenvalues --   -0.38500  -0.28867  -0.24750  -0.23478  -0.18167
  Beta virt. eigenvalues --   -0.14749  -0.12223  -0.11898  -0.10613  -0.09308
  Beta virt. eigenvalues --   -0.09069  -0.09057  -0.08004  -0.05853  -0.05589

 Mulliken atomic charges:
              1
     1  C   -0.076841
     2  C    1.752439
     3  C    0.289199
     4  C    1.752418
     5  C   -0.076892
     6  H   -0.484766
     7  H   -0.695753
     8  N    0.384842
     9  N   -0.629335
    10  H   -0.484743
    11  H   -0.695734
    12  N   -0.034834
 Sum of Mulliken atomic charges =   1.00000

 Dipole moment (field-independent basis, Debye):
    X=             -2.6060    Y=              0.0000    Z=              0.0002  Tot=              2.6060
 Quadrupole moment (field-independent basis, Debye-Ang):
   XX=            -28.3240   YY=            -27.5542   ZZ=            -45.0845
   XY=             -0.0001   XZ=              0.0005   YZ=             -0.0001

  Exact polarizability: 126.828   0.000  75.767   0.000   0.000  40.404
 Approx polarizability: 249.609   0.000 123.610  -0.002   0.000  60.829

                     1                      2                      3
                     A                      A                      A
 Frequencies --   145.1001               172.6078               256.7737
 Red. masses --     7.1995                 7.3575                 6.8363
 Frc consts  --     0.0893                 0.1292                 0.2656
 IR Inten    --     0.6315                 1.2305                 3.6877

                     4                      5                      6
                     A                      A                      A
 Frequencies --   313.2918               371.2629               463.2926
 Red. masses --     4.7199                 2.3148                10.1808
 Frc consts  --     0.2729                 0.1880                 1.2875
 IR Inten    --    21.5963                 0.0000                 0.0455

                     7                      8                      9
                     A                      A                      A
 Frequencies --   538.2155               576.4246               594.2887
 Red. masses --     7.5784                 3.8739                 1.4187
 Frc consts  --     1.2934                 0.7584                 0.2952
 IR Inten    --     0.0772                 0.2511                 0.0000

                    10                     11                     12
                     A                      A                      A
 Frequencies --   610.9025               758.1689               764.6151
 Red. masses --     7.4964                 5.1197                 1.3885
 Frc consts  --     1.6483                 1.7339                 0.4783
 IR Inten    --     2.0965                 8.7340                89.1544

                    13                     14                     15
                     A                      A                      A
 Frequencies --   906.6897               921.6812               965.4518
 Red. masses --     1.3213                 1.3413                 6.8066
 Frc consts  --     0.6400                 0.6713                 3.7380
 IR Inten    --     0.8314                 0.0000                42.9505

                    16                     17                     18
                     A                      A                      A
 Frequencies --  1017.7520              1111.8416              1167.8053
 Red. masses --     2.4624                 1.2345                 1.1552
 Frc consts  --     1.5028                 0.8991                 0.9282
 IR Inten    --    23.1288                 7.1734                23.1834

                    19                     20                     21
                     A                      A                      A
 Frequencies --  1252.2211              1284.1985              1330.8348
 Red. masses --     4.6580                 1.3097                 8.6522
 Frc consts  --     4.3034                 1.2726                 9.0287
 IR Inten    --     0.2853                 0.8004                 2.4176

                    22                     23                     24
                     A                      A                      A
 Frequencies --  1397.8909              1424.9665              1469.6268
 Red. masses --     3.9256                 2.0947                 5.9830
 Frc consts  --     4.5196                 2.5060                 7.6135
 IR Inten    --    18.2642                 2.2703                14.4174

                    25                     26                     27
                     A                      A                      A
 Frequencies --  1577.9196              2151.0422              3198.2731
 Red. masses --     5.4372                13.9173                 1.0856
 Frc consts  --     7.9762                37.9404                 6.5426
 IR Inten    --    89.6399               392.7182                34.3090

                    28                     29                     30
                     A                      A                      A
 Frequencies --  3203.8438              3226.5856              3227.3797
 Red. masses --     1.0914                 1.0963                 1.0985
 Frc consts  --     6.6006                 6.7247                 6.7412
 IR Inten    --    51.7754                57.5447                 0.2843

 - Thermochemistry -
 -------------------
 Temperature   298.150 Kelvin.  Pressure   1.00000 Atm.
 Atom     1 has atomic number  6 and mass  12.00000

 Molecular mass:   106.04052 amu.
 Principal axes and moments of inertia in atomic units:
                           1         2         3
     Eigenvalues --   327.404811107.923051435.32785
           X            1.00000   0.00000   0.00000
           Y            0.00000   1.00000   0.00000
           Z            0.00000   0.00000   1.00000
 This molecule is an asymmetric top.
 Rotational symmetry number  1.
 Rotational temperatures (Kelvin)      0.26455     0.07818     0.06034
 Rotational constants (GHZ):           5.51226     1.62894     1.25737
 Zero-point vibrational energy     217726.0 (Joules/Mol)
                                   52.03777 (Kcal/Mol)
 Warning -- explicit consideration of  10 degrees of freedom as
           vibrations may cause significant error
 Vibrational temperatures:    208.77   248.34   369.44   450.76   534.16
          (Kelvin)            666.57   774.37   829.35   855.05   878.95
                             1090.83  1100.11  1304.52  1326.09  1389.07
                             1464.32  1599.69  1680.21  1801.66  1847.67
                             1914.77  2011.25  2050.21  2114.46  2270.27
                             3094.87  4601.60  4609.61  4642.33  4643.47

 Zero-point correction=                           0.082927 (Hartree/Particle)
 Thermal correction to Energy=                    0.089638
 Thermal correction to Enthalpy=                  0.090582
 Thermal correction to Gibbs Free Energy=         0.051162
 Sum of electronic and zero-point Energies=           -356.740036
 Sum of electronic and thermal Energies=              -356.733326
 Sum of electronic and thermal Enthalpies=            -356.732382
 Sum of electronic and thermal Free Energies=         -356.771802

                     E (Thermal)             CV                S
                      KCal/Mol        Cal/Mol-Kelvin    Cal/Mol-Kelvin
 Total                   56.249             24.789             82.966
 Electronic               0.000              0.000              2.183
 Translational            0.889              2.981             39.893
 Rotational               0.889              2.981             27.745
 Vibrational             54.471             18.827             13.145
 Vibration     1          0.616              1.908              2.736
 Vibration     2          0.626              1.876              2.407
 Vibration     3          0.666              1.751              1.684
 Vibration     4          0.701              1.648              1.345
 Vibration     5          0.743              1.531              1.075
 Vibration     6          0.821              1.331              0.757
 Vibration     7          0.893              1.166              0.569
 Vibration     8          0.933              1.082              0.492
 Vibration     9          0.952              1.044              0.460
 Vibration    10          0.970              1.009              0.431

 Optimization completed.
    -- Stationary point found.
 Normal termination of Gaussian 09 at Fri Jan 21 10:44:06 2005.
