 Gaussian 09, Revision B.01,
 Gaussian 09:  EM64L-G09RevB.01 12-Aug-2010

 -------------------------------------------------
 #p Temperature=298.15 opt freq UB3LYP/aug-cc-pVDZ
 -------------------------------------------------

 --------------------------------------
 Pyridine-3+-UB3LYP-aug-cc-pVDZ-Singlet
 --------------------------------------
 Symbolic Z-matrix:
 Charge =  1 Multiplicity = 1

 SCF Done:  E(UB3LYP) =  -247.283288155     A.U. after   16 cycles
 SCF Done:  E(UB3LYP) =  -247.309408645     A.U. after   15 cycles
 SCF Done:  E(UB3LYP) =  -247.317896618     A.U. after   14 cycles
 SCF Done:  E(UB3LYP) =  -247.318704497     A.U. after   14 cycles
 SCF Done:  E(UB3LYP) =  -247.318871635     A.U. after   14 cycles
 SCF Done:  E(UB3LYP) =  -247.318896994     A.U. after   16 cycles
 SCF Done:  E(UB3LYP) =  -247.318903269     A.U. after   16 cycles
 SCF Done:  E(UB3LYP) =  -247.318904197     A.U. after    9 cycles
 Optimization completed.
    -- Stationary point found.
 Normal termination of Gaussian 09 at Tue Mar  6 09:46:05 2018.

 ----------------------------------------------------------------------
 #P Geom=AllCheck Guess=TCheck SCRF=Check GenChk UB3LYP/Aug-CC-pVDZ Fre
 q
 ----------------------------------------------------------------------

 Pyridine-3+-UB3LYP-aug-cc-pVDZ-Singlet
 --------------------------------------
 Redundant internal coordinates taken from checkpoint file:
 Pyridine-3+-UB3LYP-aug-cc-pVDZ-Singlet.chk
 Charge =  1 Multiplicity = 1

                         Standard orientation:
 ---------------------------------------------------------------------
 Center     Atomic      Atomic             Coordinates (Angstroms)
 Number     Number       Type             X           Y           Z
 ---------------------------------------------------------------------
      1          6           0       -1.534565   -0.323399    0.000280
      2          6           0       -0.445851   -1.096990   -0.000031
      3          6           0        0.904604   -1.088502   -0.000210
      4          6           0        1.398220    0.234710    0.000264
      5          1           0       -2.613325   -0.450899   -0.000003
      6          1           0        2.465539    0.459552    0.000583
      7          1           0        1.534194   -1.980095   -0.000218
      8          7           0       -0.891090    0.867965   -0.000124
      9          6           0        0.386871    1.209823   -0.000253
     10          1           0        0.595545    2.281830    0.000210
 ---------------------------------------------------------------------

 SCF Done:  E(UB3LYP) =  -247.318904197     A.U. after    1 cycles

 The electronic state is 1-A.
 Alpha  occ. eigenvalues --  -14.62234 -10.51032 -10.50266 -10.46691 -10.46048
 Alpha  occ. eigenvalues --  -10.44770  -1.22552  -1.05603  -1.02763  -0.88541
 Alpha  occ. eigenvalues --   -0.85158  -0.77476  -0.73796  -0.71165  -0.66157
 Alpha  occ. eigenvalues --   -0.66001  -0.63968  -0.53612  -0.51511  -0.51260
 Alpha virt. eigenvalues --   -0.34151  -0.27787  -0.24707  -0.15114  -0.12419
 Alpha virt. eigenvalues --   -0.11904  -0.11679  -0.10847  -0.09579  -0.09485
 Alpha virt. eigenvalues --   -0.09061  -0.05856  -0.05541  -0.05363  -0.05063

  Beta  occ. eigenvalues --  -14.62234 -10.51032 -10.50266 -10.46691 -10.46048
  Beta  occ. eigenvalues --  -10.44770  -1.22552  -1.05603  -1.02763  -0.88541
  Beta  occ. eigenvalues --   -0.85158  -0.77476  -0.73796  -0.71165  -0.66157
  Beta  occ. eigenvalues --   -0.66001  -0.63968  -0.53612  -0.51511  -0.51260
  Beta virt. eigenvalues --   -0.34151  -0.27787  -0.24707  -0.15114  -0.12419
  Beta virt. eigenvalues --   -0.11904  -0.11679  -0.10847  -0.09579  -0.09485
  Beta virt. eigenvalues --   -0.09061  -0.05856  -0.05541  -0.05363  -0.05063

 Mulliken atomic charges:
              1
     1  C    0.621325
     2  C    0.069691
     3  C    0.984761
     4  C    1.150619
     5  H   -0.486757
     6  H   -0.542991
     7  H   -0.471386
     8  N   -0.202689
     9  C    0.373526
    10  H   -0.496098
 Sum of Mulliken atomic charges =   1.00000

 Dipole moment (field-independent basis, Debye):
    X=              0.6587    Y=             -1.3030    Z=              0.0005  Tot=              1.4600
 Quadrupole moment (field-independent basis, Debye-Ang):
   XX=            -17.3488   YY=            -22.2073   ZZ=            -34.0124
   XY=              1.6609   XZ=              0.0009   YZ=              0.0013

  Exact polarizability:  68.813   0.841  66.091   0.000   0.000  31.866
 Approx polarizability: 128.481  -5.562 162.668  -0.003  -0.003  47.653

                     1                      2                      3
                     A                      A                      A
 Frequencies --   374.2546               411.9050               483.3719
 Red. masses --     2.9043                 8.1012                 3.8800
 Frc consts  --     0.2397                 0.8098                 0.5341
 IR Inten    --    11.9193                73.6883                 3.7216

                     4                      5                      6
                     A                      A                      A
 Frequencies --   565.0590               619.8346               795.5529
 Red. masses --     3.7981                 7.5540                 1.3643
 Frc consts  --     0.7145                 1.7099                 0.5087
 IR Inten    --    20.7111                32.3758                62.2282

                     7                      8                      9
                     A                      A                      A
 Frequencies --   825.5366               862.3828               922.0373
 Red. masses --     1.2487                 7.6697                 1.2702
 Frc consts  --     0.5014                 3.3607                 0.6362
 IR Inten    --     5.8008                 8.3744                 3.0321

                    10                     11                     12
                     A                      A                      A
 Frequencies --   968.8924               981.0399              1052.1651
 Red. masses --     2.6823                 1.4384                 1.5254
 Frc consts  --     1.4836                 0.8157                 0.9949
 IR Inten    --     5.4357                 1.0238                 3.6488

                    13                     14                     15
                     A                      A                      A
 Frequencies --  1081.8635              1146.5476              1211.5876
 Red. masses --     2.8352                 1.4224                 1.5374
 Frc consts  --     1.9552                 1.1017                 1.3297
 IR Inten    --     8.2445                 1.8209                10.5605

                    16                     17                     18
                     A                      A                      A
 Frequencies --  1291.7194              1373.8143              1453.2640
 Red. masses --     1.4542                 3.5999                 3.0077
 Frc consts  --     1.4296                 4.0031                 3.7426
 IR Inten    --     5.8682                22.1404                45.8481

                    19                     20                     21
                     A                      A                      A
 Frequencies --  1480.4982              1773.7960              3192.6321
 Red. masses --     3.8912                 8.7286                 1.0915
 Frc consts  --     5.0252                16.1808                 6.5551
 IR Inten    --    16.1669                 3.9230                14.7260

                    22                     23                     24
                     A                      A                      A
 Frequencies --  3199.4525              3219.4258              3264.2533
 Red. masses --     1.0917                 1.1004                 1.1098
 Frc consts  --     6.5845                 6.7201                 6.9675
 IR Inten    --    64.9679                23.5151                44.4336

 - Thermochemistry -
 -------------------
 Temperature   298.150 Kelvin.  Pressure   1.00000 Atm.
 Atom     1 has atomic number  6 and mass  12.00000

 Molecular mass:    78.03437 amu.
 Principal axes and moments of inertia in atomic units:
                           1         2         3
     Eigenvalues --   243.85724 330.48463 574.34185
           X            0.99965   0.02629   0.00001
           Y           -0.02629   0.99965   0.00002
           Z           -0.00001  -0.00002   1.00000
 This molecule is an asymmetric top.
 Rotational symmetry number  1.
 Rotational temperatures (Kelvin)      0.35518     0.26208     0.15081
 Rotational constants (GHZ):           7.40081     5.46089     3.14228
 Zero-point vibrational energy     194697.5 (Joules/Mol)
                                   46.53383 (Kcal/Mol)
 Warning -- explicit consideration of   5 degrees of freedom as
           vibrations may cause significant error
 Vibrational temperatures:    538.47   592.64   695.46   812.99   891.80
          (Kelvin)           1144.62  1187.76  1240.77  1326.60  1394.02
                             1411.50  1513.83  1556.56  1649.62  1743.20
                             1858.49  1976.61  2090.92  2130.10  2552.09
                             4593.48  4603.29  4632.03  4696.53

 Zero-point correction=                           0.074156 (Hartree/Particle)
 Thermal correction to Energy=                    0.078659
 Thermal correction to Enthalpy=                  0.079603
 Thermal correction to Gibbs Free Energy=         0.046752
 Sum of electronic and zero-point Energies=           -247.244748
 Sum of electronic and thermal Energies=              -247.240245
 Sum of electronic and thermal Enthalpies=            -247.239301
 Sum of electronic and thermal Free Energies=         -247.272152

                     E (Thermal)             CV                S
                      KCal/Mol        Cal/Mol-Kelvin    Cal/Mol-Kelvin
 Total                   49.359             16.941             69.141
 Electronic               0.000              0.000              0.000
 Translational            0.889              2.981             38.979
 Rotational               0.889              2.981             25.340
 Vibrational             47.582             10.979              4.822
 Vibration     1          0.745              1.525              1.062
 Vibration     2          0.776              1.444              0.920
 Vibration     3          0.840              1.287              0.701
 Vibration     4          0.921              1.107              0.514
 Vibration     5          0.980              0.990              0.417

 Optimization completed.
    -- Stationary point found.
 Normal termination of Gaussian 09 at Tue Mar  6 09:48:23 2018.
