 Gaussian 09, Revision B.01,
 Gaussian 09:  EM64L-G09RevB.01 12-Aug-2010

 -------------------------------------------------
 #p Temperature=298.15 opt freq UB3LYP/aug-cc-pVDZ
 -------------------------------------------------

 ----------------------------------------
 Pyrimidine-4+-UB3LYP-aug-cc-pVDZ-Singlet
 ----------------------------------------
 Symbolic Z-matrix:
 Charge =  1 Multiplicity = 1

 SCF Done:  E(UB3LYP) =  -263.311137559     A.U. after   15 cycles
 SCF Done:  E(UB3LYP) =  -263.362419660     A.U. after   14 cycles
 SCF Done:  E(UB3LYP) =  -263.376853439     A.U. after   14 cycles
 SCF Done:  E(UB3LYP) =  -263.378816406     A.U. after   14 cycles
 SCF Done:  E(UB3LYP) =  -263.379189566     A.U. after   12 cycles
 SCF Done:  E(UB3LYP) =  -263.379259676     A.U. after   11 cycles
 SCF Done:  E(UB3LYP) =  -263.379272963     A.U. after   11 cycles
 SCF Done:  E(UB3LYP) =  -263.379275382     A.U. after   15 cycles
 Optimization completed.
    -- Stationary point found.
 Normal termination of Gaussian 09 at Tue Mar  6 10:45:32 2018.

 ----------------------------------------------------------------------
 #P Geom=AllCheck Guess=TCheck SCRF=Check GenChk UB3LYP/Aug-CC-pVDZ Fre
 q
 ----------------------------------------------------------------------

 Pyrimidine-4+-UB3LYP-aug-cc-pVDZ-Singlet
 ----------------------------------------
 Redundant internal coordinates taken from checkpoint file:
 Pyrimidine-4+-UB3LYP-aug-cc-pVDZ-Singlet.chk
 Charge =  1 Multiplicity = 1

                         Standard orientation:
 ---------------------------------------------------------------------
 Center     Atomic      Atomic             Coordinates (Angstroms)
 Number     Number       Type             X           Y           Z
 ---------------------------------------------------------------------
      1          6           0        1.350741    0.238315    0.000970
      2          6           0       -0.340283   -1.200909   -0.000257
      3          6           0       -1.424345   -0.385853    0.000452
      4          6           0       -0.847615    0.935701   -0.000175
      5          1           0        2.426020    0.399578   -0.000777
      6          1           0       -1.547581    1.778054   -0.000685
      7          1           0       -2.491275   -0.590431    0.000471
      8          7           0        0.453663    1.191921   -0.000296
      9          7           0        0.858030   -1.064882   -0.000412
 ---------------------------------------------------------------------

 SCF Done:  E(UB3LYP) =  -263.379275382     A.U. after    1 cycles

 The electronic state is 1-A.
 Alpha  occ. eigenvalues --  -14.64198 -14.60079 -10.54002 -10.53734 -10.50481
 Alpha  occ. eigenvalues --  -10.48616  -1.28237  -1.17007  -1.06372  -0.93971
 Alpha  occ. eigenvalues --   -0.89282  -0.79306  -0.75902  -0.73297  -0.70131
 Alpha  occ. eigenvalues --   -0.66377  -0.60738  -0.58958  -0.53873  -0.53160
 Alpha virt. eigenvalues --   -0.36010  -0.30138  -0.26884  -0.15615  -0.12798
 Alpha virt. eigenvalues --   -0.12352  -0.11798  -0.11088  -0.10240  -0.09349
 Alpha virt. eigenvalues --   -0.08290  -0.06167  -0.05716  -0.05585  -0.04506

  Beta  occ. eigenvalues --  -14.64198 -14.60079 -10.54002 -10.53734 -10.50481
  Beta  occ. eigenvalues --  -10.48616  -1.28237  -1.17007  -1.06372  -0.93971
  Beta  occ. eigenvalues --   -0.89282  -0.79306  -0.75902  -0.73297  -0.70131
  Beta  occ. eigenvalues --   -0.66377  -0.60738  -0.58958  -0.53873  -0.53160
  Beta virt. eigenvalues --   -0.36010  -0.30138  -0.26884  -0.15615  -0.12798
  Beta virt. eigenvalues --   -0.12352  -0.11798  -0.11088  -0.10240  -0.09349
  Beta virt. eigenvalues --   -0.08290  -0.06167  -0.05716  -0.05585  -0.04506

 Mulliken atomic charges:
              1
     1  C    0.626841
     2  C   -0.287420
     3  C    1.424313
     4  C    0.354662
     5  H   -0.241668
     6  H   -0.410999
     7  H   -0.386496
     8  N   -0.056048
     9  N   -0.023185
 Sum of Mulliken atomic charges =   1.00000

 Dipole moment (field-independent basis, Debye):
    X=             -1.7093    Y=             -0.6382    Z=              0.0000  Tot=              1.8245
 Quadrupole moment (field-independent basis, Debye-Ang):
   XX=            -15.7984   YY=            -27.2532   ZZ=            -32.2451
   XY=             -0.0111   XZ=             -0.0001   YZ=             -0.0005

  Exact polarizability:  64.150   1.253  59.437   0.002   0.000  28.870
 Approx polarizability: 124.795   4.928 139.559   0.010   0.001  43.512

                     1                      2                      3
                     A                      A                      A
 Frequencies --   417.5253               508.0890               546.8253
 Red. masses --     2.8787                 5.5875                10.4235
 Frc consts  --     0.2957                 0.8499                 1.8364
 IR Inten    --     7.8581                 2.8530                30.0435

                     4                      5                      6
                     A                      A                      A
 Frequencies --   610.5293               674.9650               774.0553
 Red. masses --     3.3320                 8.7202                 1.4136
 Frc consts  --     0.7318                 2.3407                 0.4990
 IR Inten    --    44.2738                23.5204                21.7078

                     7                      8                      9
                     A                      A                      A
 Frequencies --   816.6716               924.5612               934.6223
 Red. masses --     7.9886                 4.8038                 1.3808
 Frc consts  --     3.1392                 2.4194                 0.7106
 IR Inten    --    69.2730                15.1147                 8.2104

                    10                     11                     12
                     A                      A                      A
 Frequencies --   950.5497              1021.4112              1153.0030
 Red. masses --     1.4003                 2.6253                 1.8853
 Frc consts  --     0.7454                 1.6137                 1.4767
 IR Inten    --     0.2452                 5.9333                78.9250

                    13                     14                     15
                     A                      A                      A
 Frequencies --  1195.0011              1295.2502              1333.6404
 Red. masses --     1.5566                 1.2536                 5.2219
 Frc consts  --     1.3097                 1.2391                 5.4721
 IR Inten    --     4.2976                29.1534                97.6107

                    16                     17                     18
                     A                      A                      A
 Frequencies --  1415.5464              1470.0031              2004.3035
 Red. masses --     2.3575                 6.3550                11.3161
 Frc consts  --     2.7833                 8.0911                26.7840
 IR Inten    --    25.8603                40.7961               107.6147

                    19                     20                     21
                     A                      A                      A
 Frequencies --  3166.5305              3259.6101              3266.0100
 Red. masses --     1.0914                 1.1008                 1.1012
 Frc consts  --     6.4475                 6.8913                 6.9208
 IR Inten    --    51.4618                31.0820                62.6822

 - Thermochemistry -
 -------------------
 Temperature   298.150 Kelvin.  Pressure   1.00000 Atm.
 Atom     1 has atomic number  6 and mass  12.00000

 Molecular mass:    79.02962 amu.
 Principal axes and moments of inertia in atomic units:
                           1         2         3
     Eigenvalues --   248.94872 300.03098 548.97956
           X            0.99972  -0.02376  -0.00002
           Y            0.02376   0.99972  -0.00003
           Z            0.00002   0.00003   1.00000
 This molecule is an asymmetric top.
 Rotational symmetry number  1.
 Rotational temperatures (Kelvin)      0.34792     0.28868     0.15777
 Rotational constants (GHZ):           7.24945     6.01518     3.28745
 Zero-point vibrational energy     165914.3 (Joules/Mol)
                                   39.65447 (Kcal/Mol)
 Warning -- explicit consideration of   4 degrees of freedom as
           vibrations may cause significant error
 Vibrational temperatures:    600.72   731.03   786.76   878.41   971.12
          (Kelvin)           1113.69  1175.01  1330.24  1344.71  1367.63
                             1469.58  1658.91  1719.34  1863.57  1918.81
                             2036.65  2115.00  2883.74  4555.93  4689.85
                             4699.05

 Zero-point correction=                           0.063193 (Hartree/Particle)
 Thermal correction to Energy=                    0.067413
 Thermal correction to Enthalpy=                  0.068357
 Thermal correction to Gibbs Free Energy=         0.035980
 Sum of electronic and zero-point Energies=           -263.316082
 Sum of electronic and thermal Energies=              -263.311863
 Sum of electronic and thermal Enthalpies=            -263.310919
 Sum of electronic and thermal Free Energies=         -263.343295

                     E (Thermal)             CV                S
                      KCal/Mol        Cal/Mol-Kelvin    Cal/Mol-Kelvin
 Total                   42.302             15.613             68.142
 Electronic               0.000              0.000              0.000
 Translational            0.889              2.981             39.017
 Rotational               0.889              2.981             25.220
 Vibrational             40.525              9.651              3.906
 Vibration     1          0.781              1.432              0.900
 Vibration     2          0.863              1.232              0.638
 Vibration     3          0.902              1.147              0.551
 Vibration     4          0.970              1.010              0.432

 Optimization completed.
    -- Stationary point found.
 Normal termination of Gaussian 09 at Tue Mar  6 10:47:23 2018.
