 Gaussian 09, Revision B.01,
 Gaussian 09:  EM64L-G09RevB.01 12-Aug-2010

 -------------------------------------------------
 #p Temperature=298.15 opt freq UB3LYP/aug-cc-pVDZ
 -------------------------------------------------

 ------------------------------------
 Pyridine-4-UB3LYP-aug-cc-pVDZ-Duplet
 ------------------------------------
 Symbolic Z-matrix:
 Charge =  0 Multiplicity = 2

 SCF Done:  E(UB3LYP) =  -247.613353689     A.U. after   16 cycles
 SCF Done:  E(UB3LYP) =  -247.627794158     A.U. after   15 cycles
 SCF Done:  E(UB3LYP) =  -247.628249667     A.U. after   17 cycles
 SCF Done:  E(UB3LYP) =  -247.628279443     A.U. after   17 cycles
 Optimization completed.
    -- Stationary point found.
 Normal termination of Gaussian 09 at Tue Mar  6 15:49:11 2018.

 ----------------------------------------------------------------------
 #P Geom=AllCheck Guess=TCheck SCRF=Check GenChk UB3LYP/Aug-CC-pVDZ Fre
 q
 ----------------------------------------------------------------------

 Pyridine-4-UB3LYP-aug-cc-pVDZ-Duplet
 ------------------------------------
 Redundant internal coordinates taken from checkpoint file:
 Pyridine-4-UB3LYP-aug-cc-pVDZ-Duplet.chk
 Charge =  0 Multiplicity = 2

                         Standard orientation:
 ---------------------------------------------------------------------
 Center     Atomic      Atomic             Coordinates (Angstroms)
 Number     Number       Type             X           Y           Z
 ---------------------------------------------------------------------
      1          6           0        1.146699   -0.660502    0.000014
      2          6           0        1.215318    0.747042   -0.000028
      3          6           0        0.000002    1.394335    0.000006
      4          6           0       -1.215282    0.747062    0.000025
      5          6           0       -1.146680   -0.660484   -0.000028
      6          1           0        2.069536   -1.247528    0.000037
      7          1           0        2.176596    1.260990    0.000007
      8          1           0       -2.069619   -1.247557    0.000007
      9          1           0       -2.176712    1.261010   -0.000010
     10          7           0       -0.000020   -1.347376    0.000003
 ---------------------------------------------------------------------

 SCF Done:  E(UB3LYP) =  -247.628279443     A.U. after    1 cycles

 The electronic state is 2-A.
 Alpha  occ. eigenvalues --  -14.34352 -10.24230 -10.24227 -10.23770 -10.21770
 Alpha  occ. eigenvalues --  -10.21767  -0.96019  -0.82270  -0.78182  -0.64989
 Alpha  occ. eigenvalues --   -0.63065  -0.52325  -0.50065  -0.48498  -0.45001
 Alpha  occ. eigenvalues --   -0.41511  -0.38921  -0.30731  -0.30355  -0.28058
 Alpha  occ. eigenvalues --   -0.24737
 Alpha virt. eigenvalues --   -0.04303  -0.03862  -0.00873   0.00382   0.01625
 Alpha virt. eigenvalues --    0.03001   0.04482   0.04828   0.06105   0.07747
 Alpha virt. eigenvalues --    0.07759   0.08266   0.08800   0.09450   0.09518

  Beta  occ. eigenvalues --  -14.34383 -10.24107 -10.24105 -10.22290 -10.21769
  Beta  occ. eigenvalues --  -10.21765  -0.95855  -0.80837  -0.77815  -0.64674
  Beta  occ. eigenvalues --   -0.61639  -0.51130  -0.49327  -0.47765  -0.44552
  Beta  occ. eigenvalues --   -0.41338  -0.38389  -0.29997  -0.28101  -0.27908
  Beta virt. eigenvalues --   -0.11046  -0.03906  -0.03282  -0.00822   0.00391
  Beta virt. eigenvalues --    0.01841   0.03007   0.04843   0.04885   0.06209
  Beta virt. eigenvalues --    0.07718   0.07898   0.08513   0.08783   0.09471

 Mulliken atomic charges:
              1
     1  C    0.197511
     2  C    1.467098
     3  C   -0.854002
     4  C    1.466661
     5  C    0.197231
     6  H   -0.599841
     7  H   -0.573604
     8  H   -0.599667
     9  H   -0.573352
    10  N   -0.128035
 Sum of Mulliken atomic charges =   0.00000

 Dipole moment (field-independent basis, Debye):
    X=              0.0001    Y=              1.1485    Z=              0.0000  Tot=              1.1485
 Quadrupole moment (field-independent basis, Debye-Ang):
   XX=            -27.7150   YY=            -39.1460   ZZ=            -37.2862
   XY=             -0.0001   XZ=              0.0001   YZ=              0.0000

  Exact polarizability:  78.806   0.000  72.929   0.000   0.000  40.133
 Approx polarizability: 130.213   0.001 127.849   0.000   0.000  59.747

                     1                      2                      3
                     A                      A                      A
 Frequencies --   377.4600               440.9802               613.4078
 Red. masses --     2.5143                 4.8651                 8.1069
 Frc consts  --     0.2111                 0.5574                 1.7972
 IR Inten    --     0.0000                17.1148                 0.0075

                     4                      5                      6
                     A                      A                      A
 Frequencies --   639.5323               708.7247               761.7997
 Red. masses --     6.8316                 3.9340                 1.2210
 Frc consts  --     1.6462                 1.1642                 0.4175
 IR Inten    --     0.1532                 2.2682                51.7678

                     7                      8                      9
                     A                      A                      A
 Frequencies --   821.6099               955.8933               975.6831
 Red. masses --     1.2494                 1.3397                 6.2213
 Frc consts  --     0.4969                 0.7212                 3.4894
 IR Inten    --     0.0014                 0.0046                28.6930

                    10                     11                     12
                     A                      A                      A
 Frequencies --   981.8522              1038.1193              1071.6171
 Red. masses --     1.4799                 5.5046                 1.5605
 Frc consts  --     0.8406                 3.4952                 1.0558
 IR Inten    --     0.0000                 1.3891                 0.5564

                    13                     14                     15
                     A                      A                      A
 Frequencies --  1073.6251              1221.9511              1281.4011
 Red. masses --     1.6341                 1.3349                 3.6751
 Frc consts  --     1.1097                 1.1744                 3.5554
 IR Inten    --     9.5954                 4.6185                 1.6670

                    16                     17                     18
                     A                      A                      A
 Frequencies --  1312.0744              1399.1160              1464.9009
 Red. masses --     1.8192                 1.8091                 2.2409
 Frc consts  --     1.8452                 2.0865                 2.8333
 IR Inten    --     0.2845                16.8580                10.6856

                    19                     20                     21
                     A                      A                      A
 Frequencies --  1540.2969              1620.6425              3149.3675
 Red. masses --     4.4369                 8.8096                 1.0874
 Frc consts  --     6.2020                13.6327                 6.3545
 IR Inten    --    55.7920                23.2995                22.0235

                    22                     23                     24
                     A                      A                      A
 Frequencies --  3151.0411              3192.6968              3194.4180
 Red. masses --     1.0903                 1.0918                 1.0941
 Frc consts  --     6.3783                 6.5574                 6.5778
 IR Inten    --     4.9684                 6.3503                 1.1739

 - Thermochemistry -
 -------------------
 Temperature   298.150 Kelvin.  Pressure   1.00000 Atm.
 Atom     1 has atomic number  6 and mass  12.00000

 Molecular mass:    78.03437 amu.
 Principal axes and moments of inertia in atomic units:
                           1         2         3
     Eigenvalues --   281.96348 304.21042 586.17389
           X            1.00000   0.00000   0.00000
           Y            0.00000   1.00000   0.00000
           Z            0.00000   0.00000   1.00000
 This molecule is an asymmetric top.
 Rotational symmetry number  1.
 Rotational temperatures (Kelvin)      0.30718     0.28472     0.14776
 Rotational constants (GHZ):           6.40062     5.93254     3.07885
 Zero-point vibrational energy     197313.3 (Joules/Mol)
                                   47.15901 (Kcal/Mol)
 Warning -- explicit consideration of   3 degrees of freedom as
           vibrations may cause significant error
 Vibrational temperatures:    543.08   634.47   882.56   920.14  1019.70
          (Kelvin)           1096.06  1182.11  1375.32  1403.79  1412.66
                             1493.62  1541.82  1544.71  1758.11  1843.65
                             1887.78  2013.01  2107.66  2216.14  2331.74
                             4531.23  4533.64  4593.57  4596.05

 Zero-point correction=                           0.075153 (Hartree/Particle)
 Thermal correction to Energy=                    0.079422
 Thermal correction to Enthalpy=                  0.080366
 Thermal correction to Gibbs Free Energy=         0.047169
 Sum of electronic and zero-point Energies=           -247.553127
 Sum of electronic and thermal Energies=              -247.548857
 Sum of electronic and thermal Enthalpies=            -247.547913
 Sum of electronic and thermal Free Energies=         -247.581110

                     E (Thermal)             CV                S
                      KCal/Mol        Cal/Mol-Kelvin    Cal/Mol-Kelvin
 Total                   49.838             15.929             69.869
 Electronic               0.000              0.000              1.377
 Translational            0.889              2.981             38.979
 Rotational               0.889              2.981             25.423
 Vibrational             48.061              9.967              4.091
 Vibration     1          0.748              1.518              1.049
 Vibration     2          0.801              1.381              0.824
 Vibration     3          0.973              1.003              0.427

 Normal termination of Gaussian 09 at Tue Mar  6 15:51:39 2018.
