 Gaussian 09, Revision B.01,
 Gaussian 09:  EM64L-G09RevB.01 12-Aug-2010

 -------------------------------------------------
 #p Temperature=298.15 opt freq UB3LYP/aug-cc-pVDZ
 -------------------------------------------------

 -----------------------------------------
 Pyrimidine-2-N2-UB3LYP-aug-cc-pVDZ-Duplet
 -----------------------------------------
 Symbolic Z-matrix:
 Charge =  0 Multiplicity = 2

 SCF Done:  E(UB3LYP) =  -372.849933267     A.U. after   25 cycles
 SCF Done:  E(UB3LYP) =  -372.992889876     A.U. after   20 cycles
 SCF Done:  E(UB3LYP) =  -373.119408723     A.U. after   23 cycles
 SCF Done:  E(UB3LYP) =  -373.180832713     A.U. after   20 cycles
 SCF Done:  E(UB3LYP) =  -373.191437156     A.U. after   18 cycles
 SCF Done:  E(UB3LYP) =  -373.196240317     A.U. after   21 cycles
 SCF Done:  E(UB3LYP) =  -373.197761346     A.U. after   21 cycles
 SCF Done:  E(UB3LYP) =  -373.198311057     A.U. after   17 cycles
 SCF Done:  E(UB3LYP) =  -373.198733745     A.U. after   17 cycles
 SCF Done:  E(UB3LYP) =  -373.199268804     A.U. after   21 cycles
 SCF Done:  E(UB3LYP) =  -373.205286324     A.U. after   16 cycles
 SCF Done:  E(UB3LYP) =  -373.206418381     A.U. after   19 cycles
 SCF Done:  E(UB3LYP) =  -373.206867351     A.U. after   19 cycles
 SCF Done:  E(UB3LYP) =  -373.207677203     A.U. after   19 cycles
 SCF Done:  E(UB3LYP) =  -373.207746418     A.U. after   16 cycles
 SCF Done:  E(UB3LYP) =  -373.207772155     A.U. after   15 cycles
 SCF Done:  E(UB3LYP) =  -373.207785036     A.U. after   15 cycles
 SCF Done:  E(UB3LYP) =  -373.207787570     A.U. after   14 cycles
 SCF Done:  E(UB3LYP) =  -373.207788779     A.U. after   12 cycles
 Optimization completed.
    -- Stationary point found.
 Normal termination of Gaussian 09 at Tue Mar 20 09:10:17 2018.

 ----------------------------------------------------------------------
 #P Geom=AllCheck Guess=TCheck SCRF=Check GenChk UB3LYP/Aug-CC-pVDZ Fre
 q
 ----------------------------------------------------------------------

 Pyrimidine-2-N2-UB3LYP-aug-cc-pVDZ-Duplet
 -----------------------------------------
 Redundant internal coordinates taken from checkpoint file:
 Pyrimidine-2-N2-UB3LYP-aug-cc-pVDZ-Duplet.chk
 Charge =  0 Multiplicity = 2

                         Standard orientation:
 ---------------------------------------------------------------------
 Center     Atomic      Atomic             Coordinates (Angstroms)
 Number     Number       Type             X           Y           Z
 ---------------------------------------------------------------------
      1          6           0        0.525399   -0.138843   -0.101190
      2          7           0        1.970423   -0.342705   -0.272973
      3          7           0        2.795800    0.244103    0.333988
      4          6           0       -2.095978    0.165864    0.086092
      5          1           0       -3.174895    0.291093    0.160849
      6          6           0       -1.503567   -1.098489    0.076330
      7          1           0       -2.102015   -2.008654    0.151371
      8          7           0       -0.179416   -1.263360   -0.038888
      9          6           0       -1.236828    1.260826   -0.016343
     10          1           0       -1.617127    2.284573   -0.027131
     11          7           0        0.093177    1.118653   -0.101331
 ---------------------------------------------------------------------

 SCF Done:  E(UB3LYP) =  -373.207788779     A.U. after    1 cycles

 The electronic state is 2-A.
 Alpha  occ. eigenvalues --  -14.42715 -14.41262 -14.37363 -14.37351 -10.32361
 Alpha  occ. eigenvalues --  -10.27263 -10.27249 -10.23666  -1.09110  -1.02379
 Alpha  occ. eigenvalues --   -0.93151  -0.83745  -0.73723  -0.69765  -0.62912
 Alpha  occ. eigenvalues --   -0.55700  -0.53495  -0.49709  -0.47500  -0.46058
 Alpha  occ. eigenvalues --   -0.45194  -0.42488  -0.41924  -0.35147  -0.35100
 Alpha  occ. eigenvalues --   -0.31642  -0.28976  -0.21679
 Alpha virt. eigenvalues --   -0.08604  -0.07891  -0.02942  -0.01938   0.00300
 Alpha virt. eigenvalues --    0.01573   0.03315   0.03443   0.05152   0.05335
 Alpha virt. eigenvalues --    0.06913   0.07286   0.07829   0.08103   0.08370

  Beta  occ. eigenvalues --  -14.42378 -14.39714 -14.37368 -14.37359 -10.31956
  Beta  occ. eigenvalues --  -10.27243 -10.27234 -10.23674  -1.07548  -1.01971
  Beta  occ. eigenvalues --   -0.93110  -0.83282  -0.72517  -0.69641  -0.62079
  Beta  occ. eigenvalues --   -0.55502  -0.53034  -0.47993  -0.46888  -0.45311
  Beta  occ. eigenvalues --   -0.43641  -0.41543  -0.38990  -0.35130  -0.34913
  Beta  occ. eigenvalues --   -0.31109  -0.28939
  Beta virt. eigenvalues --   -0.08492  -0.07880  -0.06932  -0.02196  -0.01850
  Beta virt. eigenvalues --    0.00308   0.01633   0.03313   0.03485   0.05229
  Beta virt. eigenvalues --    0.05344   0.06957   0.07298   0.07844   0.08136

 Mulliken atomic charges:
              1
     1  C    0.223804
     2  N   -0.012215
     3  N   -0.467720
     4  C    1.428731
     5  H   -0.631489
     6  C    0.471125
     7  H   -0.595684
     8  N   -0.155326
     9  C    0.499469
    10  H   -0.579163
    11  N   -0.181532
 Sum of Mulliken atomic charges =   0.00000

 Dipole moment (field-independent basis, Debye):
    X=             -5.0328    Y=              0.3097    Z=              0.0873  Tot=              5.0431
 Quadrupole moment (field-independent basis, Debye-Ang):
   XX=            -44.5245   YY=            -46.3684   ZZ=            -46.1115
   XY=             -1.0087   XZ=             -0.9714   YZ=             -0.8754

  Exact polarizability: 103.683   1.635  74.453   0.657   0.998  45.266
 Approx polarizability: 156.560   6.042 129.154   2.053   3.215  71.392

                     1                      2                      3
                     A                      A                      A
 Frequencies --    68.2317               153.0781               296.4889
 Red. masses --    10.4061                 7.1607                 7.9287
 Frc consts  --     0.0285                 0.0989                 0.4106
 IR Inten    --     0.8168                 1.2821                 2.0301

                     4                      5                      6
                     A                      A                      A
 Frequencies --   408.0316               422.7845               501.7392
 Red. masses --     4.2618                 6.5604                 5.7627
 Frc consts  --     0.4181                 0.6909                 0.8547
 IR Inten    --     0.1491                 0.5686                 2.2019

                     7                      8                      9
                     A                      A                      A
 Frequencies --   587.7610               638.0750               784.9886
 Red. masses --     4.5582                 7.8556                 7.6297
 Frc consts  --     0.9278                 1.8844                 2.7700
 IR Inten    --     2.3320                10.4558                15.0093

                    10                     11                     12
                     A                      A                      A
 Frequencies --   809.7321               823.3420               999.5551
 Red. masses --     2.1790                 2.1679                 1.6009
 Frc consts  --     0.8418                 0.8659                 0.9424
 IR Inten    --     1.3611                45.2679                 0.0850

                    13                     14                     15
                     A                      A                      A
 Frequencies --  1004.9078              1005.8895              1087.8071
 Red. masses --     2.4725                 2.0880                 2.5558
 Frc consts  --     1.4711                 1.2448                 1.7819
 IR Inten    --     0.3778                 0.9001                 1.0323

                    16                     17                     18
                     A                      A                      A
 Frequencies --  1111.3097              1202.7823              1253.0383
 Red. masses --     1.3697                 4.3854                 4.3053
 Frc consts  --     0.9967                 3.7379                 3.9827
 IR Inten    --     0.6581                56.1224                 4.1664

                    19                     20                     21
                     A                      A                      A
 Frequencies --  1302.2215              1415.8547              1455.4189
 Red. masses --     1.8961                 2.1679                 2.1207
 Frc consts  --     1.8945                 2.5605                 2.6467
 IR Inten    --     4.9270               117.2993                 1.3696

                    22                     23                     24
                     A                      A                      A
 Frequencies --  1602.2546              1607.3085              1877.2071
 Red. masses --     5.5449                 6.2884                13.9882
 Frc consts  --     8.3870                 9.5717                29.0426
 IR Inten    --    78.2646                96.8907                15.5663

                    25                     26                     27
                     A                      A                      A
 Frequencies --  3172.6963              3176.8756              3218.0263
 Red. masses --     1.0906                 1.0923                 1.0969
 Frc consts  --     6.4680                 6.4953                 6.6926
 IR Inten    --    10.2267                10.6821                 4.4161

 - Thermochemistry -
 -------------------
 Temperature   298.150 Kelvin.  Pressure   1.00000 Atm.
 Atom     1 has atomic number  6 and mass  12.00000

 Molecular mass:   107.03577 amu.
 Principal axes and moments of inertia in atomic units:
                           1         2         3
     Eigenvalues --   317.753681020.694031316.29977
           X            0.99999  -0.00220  -0.00285
           Y            0.00219   0.99999  -0.00380
           Z            0.00286   0.00379   0.99999
 This molecule is an asymmetric top.
 Rotational symmetry number  1.
 Rotational temperatures (Kelvin)      0.27258     0.08486     0.06580
 Rotational constants (GHZ):           5.67969     1.76815     1.37107
 Zero-point vibrational energy     191327.2 (Joules/Mol)
                                   45.72829 (Kcal/Mol)
 Warning -- explicit consideration of   7 degrees of freedom as
           vibrations may cause significant error
 Vibrational temperatures:     98.17   220.24   426.58   587.07   608.29
          (Kelvin)            721.89   845.66   918.05  1129.42  1165.02
                             1184.60  1438.14  1445.84  1447.25  1565.11
                             1598.92  1730.53  1802.84  1873.60  2037.10
                             2094.02  2305.28  2312.56  2700.88  4564.80
                             4570.81  4630.02

 Zero-point correction=                           0.072873 (Hartree/Particle)
 Thermal correction to Energy=                    0.079135
 Thermal correction to Enthalpy=                  0.080079
 Thermal correction to Gibbs Free Energy=         0.041304
 Sum of electronic and zero-point Energies=           -373.134916
 Sum of electronic and thermal Energies=              -373.128654
 Sum of electronic and thermal Enthalpies=            -373.127709
 Sum of electronic and thermal Free Energies=         -373.166485

                     E (Thermal)             CV                S
                      KCal/Mol        Cal/Mol-Kelvin    Cal/Mol-Kelvin
 Total                   49.658             22.078             81.610
 Electronic               0.000              0.000              1.377
 Translational            0.889              2.981             39.921
 Rotational               0.889              2.981             27.548
 Vibrational             47.881             16.117             12.764
 Vibration     1          0.598              1.969              4.204
 Vibration     2          0.619              1.899              2.634
 Vibration     3          0.690              1.680              1.437
 Vibration     4          0.773              1.453              0.934
 Vibration     5          0.785              1.421              0.883
 Vibration     6          0.857              1.246              0.654
 Vibration     7          0.945              1.058              0.471

 Optimization completed.
    -- Stationary point found.
 Normal termination of Gaussian 09 at Tue Mar 20 09:16:00 2018.
