 Gaussian 09, Revision B.01,
 Gaussian 09:  EM64L-G09RevB.01 12-Aug-2010

 -------------------------------------------------
 #p Temperature=298.15 opt freq UB3LYP/aug-cc-pVDZ
 -------------------------------------------------

 --------------------------------------
 Pyrimidine-4-UB3LYP-aug-cc-pVDZ-Duplet
 --------------------------------------
 Symbolic Z-matrix:
 Charge =  0 Multiplicity = 2

 SCF Done:  E(UB3LYP) =  -263.651250954     A.U. after   17 cycles
 SCF Done:  E(UB3LYP) =  -263.678153856     A.U. after   17 cycles
 SCF Done:  E(UB3LYP) =  -263.679514469     A.U. after   15 cycles
 SCF Done:  E(UB3LYP) =  -263.679581303     A.U. after   19 cycles
 SCF Done:  E(UB3LYP) =  -263.679585803     A.U. after   19 cycles
 Optimization completed.
    -- Stationary point found.
 Normal termination of Gaussian 09 at Tue Mar  6 16:28:04 2018.

 ----------------------------------------------------------------------
 #P Geom=AllCheck Guess=TCheck SCRF=Check GenChk UB3LYP/Aug-CC-pVDZ Fre
 q
 ----------------------------------------------------------------------

 Pyrimidine-4-UB3LYP-aug-cc-pVDZ-Duplet
 --------------------------------------
 Redundant internal coordinates taken from checkpoint file:
 Pyrimidine-4-UB3LYP-aug-cc-pVDZ-Duplet.chk
 Charge =  0 Multiplicity = 2

                         Standard orientation:
 ---------------------------------------------------------------------
 Center     Atomic      Atomic             Coordinates (Angstroms)
 Number     Number       Type             X           Y           Z
 ---------------------------------------------------------------------
      1          6           0       -1.248930    0.377906   -0.000135
      2          6           0        0.197406   -1.354760    0.000014
      3          6           0        1.306512   -0.512002   -0.000020
      4          6           0        0.978397    0.848863    0.000026
      5          1           0       -2.284878    0.717512    0.000264
      6          1           0        1.764727    1.608980    0.000023
      7          1           0        2.337017   -0.861987   -0.000051
      8          7           0       -0.287708    1.296114    0.000025
      9          7           0       -1.029031   -0.956764    0.000040
 ---------------------------------------------------------------------

 SCF Done:  E(UB3LYP) =  -263.679585803     A.U. after    1 cycles

 The electronic state is 2-A.
 Alpha  occ. eigenvalues --  -14.37197 -14.36089 -10.28460 -10.26341 -10.26145
 Alpha  occ. eigenvalues --  -10.23331  -1.01796  -0.91894  -0.81648  -0.68543
 Alpha  occ. eigenvalues --   -0.66617  -0.54897  -0.52719  -0.49291  -0.45150
 Alpha  occ. eigenvalues --   -0.43928  -0.34903  -0.34369  -0.32104  -0.30759
 Alpha  occ. eigenvalues --   -0.23461
 Alpha virt. eigenvalues --   -0.06332  -0.05542  -0.01093   0.00847   0.01639
 Alpha virt. eigenvalues --    0.03885   0.04214   0.05317   0.05730   0.07125
 Alpha virt. eigenvalues --    0.08433   0.08703   0.09123   0.09518   0.10114

  Beta  occ. eigenvalues --  -14.36838 -14.36081 -10.28287 -10.26275 -10.24792
  Beta  occ. eigenvalues --  -10.23190  -1.01317  -0.91382  -0.80871  -0.68026
  Beta  occ. eigenvalues --   -0.65315  -0.53933  -0.51650  -0.48895  -0.44835
  Beta  occ. eigenvalues --   -0.43233  -0.33962  -0.32884  -0.30468  -0.29748
  Beta virt. eigenvalues --   -0.10234  -0.06129  -0.04531  -0.01060   0.00861
  Beta virt. eigenvalues --    0.01817   0.03920   0.04517   0.05374   0.05847
  Beta virt. eigenvalues --    0.07155   0.08547   0.08786   0.09190   0.09642

 Mulliken atomic charges:
              1
     1  C    0.487549
     2  C   -0.475469
     3  C    1.362027
     4  C    0.388666
     5  H   -0.381385
     6  H   -0.518199
     7  H   -0.501167
     8  N   -0.191395
     9  N   -0.170628
 Sum of Mulliken atomic charges =   0.00000

 Dipole moment (field-independent basis, Debye):
    X=              1.6519    Y=              0.5580    Z=              0.0000  Tot=              1.7436
 Quadrupole moment (field-independent basis, Debye-Ang):
   XX=            -29.2556   YY=            -39.8395   ZZ=            -35.3508
   XY=             -1.0864   XZ=             -0.0004   YZ=              0.0002

  Exact polarizability:  71.422  -2.249  67.116   0.001   0.000  36.421
 Approx polarizability: 120.356  -3.661 117.103   0.003   0.000  54.386

                     1                      2                      3
                     A                      A                      A
 Frequencies --   349.4576               435.1234               602.1035
 Red. masses --     2.7616                 6.2688                 9.7403
 Frc consts  --     0.1987                 0.6993                 2.0805
 IR Inten    --     6.3256                 6.4031                13.9467

                     4                      5                      6
                     A                      A                      A
 Frequencies --   682.5818               722.5451               819.8707
 Red. masses --     8.1443                 3.1909                 1.3694
 Frc consts  --     2.2357                 0.9815                 0.5423
 IR Inten    --     1.2483                19.1702                11.9817

                     7                      8                      9
                     A                      A                      A
 Frequencies --   952.3331               967.7987               998.0405
 Red. masses --     9.2182                 1.3601                 1.4805
 Frc consts  --     4.9258                 0.7506                 0.8689
 IR Inten    --    36.0361                 0.2374                 0.0212

                    10                     11                     12
                     A                      A                      A
 Frequencies --  1063.4109              1076.3550              1176.0489
 Red. masses --     4.3418                 1.8437                 2.1940
 Frc consts  --     2.8928                 1.2585                 1.7879
 IR Inten    --     2.3834                15.4348                 5.3392

                    13                     14                     15
                     A                      A                      A
 Frequencies --  1250.9699              1299.9126              1386.5867
 Red. masses --     2.5465                 2.7950                 1.4981
 Frc consts  --     2.3479                 2.7827                 1.6970
 IR Inten    --     5.3333                23.5431                21.2911

                    16                     17                     18
                     A                      A                      A
 Frequencies --  1461.6184              1534.7140              1662.0855
 Red. masses --     2.2065                 4.6625                 9.9854
 Frc consts  --     2.7774                 6.4702                16.2525
 IR Inten    --     6.6510                83.9474                91.5768

                    19                     20                     21
                     A                      A                      A
 Frequencies --  3155.1680              3195.2728              3219.1222
 Red. masses --     1.0902                 1.0924                 1.0945
 Frc consts  --     6.3946                 6.5710                 6.6824
 IR Inten    --    10.8414                12.2866                 2.9433

 - Thermochemistry -
 -------------------
 Temperature   298.150 Kelvin.  Pressure   1.00000 Atm.
 Atom     1 has atomic number  6 and mass  12.00000

 Molecular mass:    79.02962 amu.
 Principal axes and moments of inertia in atomic units:
                           1         2         3
     Eigenvalues --   270.01307 289.67933 559.69240
           X            0.98979  -0.14251  -0.00001
           Y            0.14251   0.98979   0.00000
           Z            0.00001   0.00000   1.00000
 This molecule is an asymmetric top.
 Rotational symmetry number  1.
 Rotational temperatures (Kelvin)      0.32078     0.29900     0.15475
 Rotational constants (GHZ):           6.68390     6.23013     3.22452
 Zero-point vibrational energy     167543.7 (Joules/Mol)
                                   40.04391 (Kcal/Mol)
 Warning -- explicit consideration of   3 degrees of freedom as
           vibrations may cause significant error
 Vibrational temperatures:    502.79   626.04   866.29   982.08  1039.58
          (Kelvin)           1179.61  1370.19  1392.44  1435.96  1530.01
                             1548.63  1692.07  1799.86  1870.28  1994.99
                             2102.94  2208.11  2391.37  4539.58  4597.28
                             4631.59

 Zero-point correction=                           0.063814 (Hartree/Particle)
 Thermal correction to Energy=                    0.067984
 Thermal correction to Enthalpy=                  0.068928
 Thermal correction to Gibbs Free Energy=         0.035884
 Sum of electronic and zero-point Energies=           -263.615772
 Sum of electronic and thermal Energies=              -263.611602
 Sum of electronic and thermal Enthalpies=            -263.610658
 Sum of electronic and thermal Free Energies=         -263.643702

                     E (Thermal)             CV                S
                      KCal/Mol        Cal/Mol-Kelvin    Cal/Mol-Kelvin
 Total                   42.660             14.914             69.546
 Electronic               0.000              0.000              1.377
 Translational            0.889              2.981             39.017
 Rotational               0.889              2.981             25.285
 Vibrational             40.883              8.953              3.867
 Vibration     1          0.727              1.576              1.169
 Vibration     2          0.796              1.394              0.842
 Vibration     3          0.960              1.027              0.446

 Optimization completed.
    -- Stationary point found.
 Normal termination of Gaussian 09 at Tue Mar  6 16:30:02 2018.
