 Gaussian 09, Revision B.01,
 Gaussian 09:  EM64L-G09RevB.01 12-Aug-2010

 -------------------------------------------------
 #p Temperature=298.15 opt freq UB3LYP/aug-cc-pVDZ
 -------------------------------------------------

 ----------------------------------------
 Pyrimidine-5+-UB3LYP-aug-cc-pVDZ-Singlet
 ----------------------------------------
 Symbolic Z-matrix:
 Charge =  1 Multiplicity = 1

 SCF Done:  E(UB3LYP) =  -263.301779436     A.U. after   16 cycles
 SCF Done:  E(UB3LYP) =  -263.330089436     A.U. after   13 cycles
 SCF Done:  E(UB3LYP) =  -263.336115473     A.U. after   12 cycles
 SCF Done:  E(UB3LYP) =  -263.336586926     A.U. after   11 cycles
 SCF Done:  E(UB3LYP) =  -263.336646398     A.U. after   10 cycles
 SCF Done:  E(UB3LYP) =  -263.336649556     A.U. after    9 cycles
 Optimization completed.
    -- Stationary point found.
 Normal termination of Gaussian 09 at Tue Mar  6 11:00:36 2018.

 ----------------------------------------------------------------------
 #P Geom=AllCheck Guess=TCheck SCRF=Check GenChk UB3LYP/Aug-CC-pVDZ Fre
 q
 ----------------------------------------------------------------------

 Pyrimidine-5+-UB3LYP-aug-cc-pVDZ-Singlet
 ----------------------------------------
 Redundant internal coordinates taken from checkpoint file:
 Pyrimidine-5+-UB3LYP-aug-cc-pVDZ-Singlet.chk
 Charge =  1 Multiplicity = 1

                         Standard orientation:
 ---------------------------------------------------------------------
 Center     Atomic      Atomic             Coordinates (Angstroms)
 Number     Number       Type             X           Y           Z
 ---------------------------------------------------------------------
      1          6           0       -1.269584   -0.735984   -0.000038
      2          6           0        0.001481   -1.172406   -0.000016
      3          6           0        1.271602   -0.733560    0.000079
      4          6           0       -0.001468    1.220271   -0.000148
      5          1           0       -2.221897   -1.264981   -0.000029
      6          1           0       -0.002419    2.313859    0.000361
      7          1           0        2.225297   -1.260011   -0.000014
      8          7           0        1.189635    0.625491   -0.000026
      9          7           0       -1.191516    0.623253    0.000086
 ---------------------------------------------------------------------

 SCF Done:  E(UB3LYP) =  -263.336649556     A.U. after    1 cycles

 The electronic state is 1-A.
 Alpha  occ. eigenvalues --  -14.61853 -14.61839 -10.54099 -10.52019 -10.52010
 Alpha  occ. eigenvalues --  -10.50649  -1.26320  -1.16177  -1.05937  -0.93874
 Alpha  occ. eigenvalues --   -0.89336  -0.79419  -0.78386  -0.72274  -0.69026
 Alpha  occ. eigenvalues --   -0.67649  -0.58628  -0.57508  -0.55140  -0.50398
 Alpha virt. eigenvalues --   -0.38139  -0.30966  -0.27153  -0.15724  -0.13589
 Alpha virt. eigenvalues --   -0.12565  -0.12240  -0.11263  -0.09775  -0.09589
 Alpha virt. eigenvalues --   -0.09143  -0.06071  -0.06029  -0.04627  -0.04141

  Beta  occ. eigenvalues --  -14.61853 -14.61839 -10.54099 -10.52019 -10.52010
  Beta  occ. eigenvalues --  -10.50649  -1.26320  -1.16177  -1.05937  -0.93874
  Beta  occ. eigenvalues --   -0.89336  -0.79419  -0.78386  -0.72274  -0.69026
  Beta  occ. eigenvalues --   -0.67649  -0.58628  -0.57508  -0.55140  -0.50398
  Beta virt. eigenvalues --   -0.38139  -0.30966  -0.27153  -0.15724  -0.13589
  Beta virt. eigenvalues --   -0.12565  -0.12240  -0.11263  -0.09775  -0.09589
  Beta virt. eigenvalues --   -0.09143  -0.06071  -0.06029  -0.04627  -0.04141

 Mulliken atomic charges:
              1
     1  C    0.926994
     2  C    0.238218
     3  C    0.927778
     4  C    0.532048
     5  H   -0.414996
     6  H   -0.295675
     7  H   -0.415158
     8  N   -0.249544
     9  N   -0.249665
 Sum of Mulliken atomic charges =   1.00000

 Dipole moment (field-independent basis, Debye):
    X=              0.0070    Y=             -2.6665    Z=              0.0001  Tot=              2.6665
 Quadrupole moment (field-independent basis, Debye-Ang):
   XX=            -22.8163   YY=            -20.2491   ZZ=            -32.3685
   XY=             -0.0013   XZ=              0.0004   YZ=              0.0006

  Exact polarizability:  62.812   0.002  62.035   0.000   0.000  29.232
 Approx polarizability: 134.905   0.045 147.303  -0.001   0.000  43.813

                     1                      2                      3
                     A                      A                      A
 Frequencies --    74.3143               399.9153               435.8920
 Red. masses --     8.6730                 3.7504                 4.6461
 Frc consts  --     0.0282                 0.3534                 0.5201
 IR Inten    --   132.3283                 1.4525                 0.0000

                     4                      5                      6
                     A                      A                      A
 Frequencies --   589.5424               689.0993               876.1861
 Red. masses --     3.1982                 7.7697                 1.3563
 Frc consts  --     0.6549                 2.1738                 0.6135
 IR Inten    --    50.5232                16.8004                30.0180

                     7                      8                      9
                     A                      A                      A
 Frequencies --   891.1834               905.6554               995.4398
 Red. masses --     1.3310                11.7387                 1.4773
 Frc consts  --     0.6228                 5.6728                 0.8625
 IR Inten    --     0.0013                18.8979                 1.9966

                    10                     11                     12
                     A                      A                      A
 Frequencies --  1038.6571              1049.1248              1113.5444
 Red. masses --     2.1682                 5.1402                 4.4549
 Frc consts  --     1.3782                 3.3334                 3.2546
 IR Inten    --     6.0795                 2.2195                 3.8594

                    13                     14                     15
                     A                      A                      A
 Frequencies --  1214.2368              1285.1351              1329.4317
 Red. masses --     1.3606                 1.2662                 2.0493
 Frc consts  --     1.1819                 1.2321                 2.1340
 IR Inten    --    10.2238                 3.9696                 7.6009

                    16                     17                     18
                     A                      A                      A
 Frequencies --  1403.7456              1456.5903              1734.5595
 Red. masses --     7.7745                 3.3555                 9.1402
 Frc consts  --     9.0261                 4.1945                16.2025
 IR Inten    --    35.0279                 0.3251                48.5509

                    19                     20                     21
                     A                      A                      A
 Frequencies --  3180.0745              3227.0008              3231.4313
 Red. masses --     1.0919                 1.1002                 1.1027
 Frc consts  --     6.5058                 6.7505                 6.7841
 IR Inten    --    48.9347                78.8775                19.9252

 - Thermochemistry -
 -------------------
 Temperature   298.150 Kelvin.  Pressure   1.00000 Atm.
 Atom     1 has atomic number  6 and mass  12.00000

 Molecular mass:    79.02962 amu.
 Principal axes and moments of inertia in atomic units:
                           1         2         3
     Eigenvalues --   238.71336 315.71750 554.43085
           X            1.00000   0.00005   0.00000
           Y           -0.00005   1.00000   0.00001
           Z            0.00000  -0.00001   1.00000
 This molecule is an asymmetric top.
 Rotational symmetry number  1.
 Rotational temperatures (Kelvin)      0.36284     0.27434     0.15622
 Rotational constants (GHZ):           7.56029     5.71632     3.25512
 Zero-point vibrational energy     162218.2 (Joules/Mol)
                                   38.77107 (Kcal/Mol)
 Warning -- explicit consideration of   4 degrees of freedom as
           vibrations may cause significant error
 Vibrational temperatures:    106.92   575.39   627.15   848.22   991.46
          (Kelvin)           1260.63  1282.21  1303.03  1432.21  1494.39
                             1509.45  1602.14  1747.01  1849.02  1912.75
                             2019.67  2095.71  2495.64  4575.41  4642.93
                             4649.30

 Zero-point correction=                           0.061786 (Hartree/Particle)
 Thermal correction to Energy=                    0.066615
 Thermal correction to Enthalpy=                  0.067559
 Thermal correction to Gibbs Free Energy=         0.033466
 Sum of electronic and zero-point Energies=           -263.274864
 Sum of electronic and thermal Energies=              -263.270034
 Sum of electronic and thermal Enthalpies=            -263.269090
 Sum of electronic and thermal Free Energies=         -263.303183

                     E (Thermal)             CV                S
                      KCal/Mol        Cal/Mol-Kelvin    Cal/Mol-Kelvin
 Total                   41.802             16.256             71.755
 Electronic               0.000              0.000              0.000
 Translational            0.889              2.981             39.017
 Rotational               0.889              2.981             25.239
 Vibrational             40.024             10.294              7.499
 Vibration     1          0.599              1.966              4.036
 Vibration     2          0.766              1.470              0.963
 Vibration     3          0.796              1.392              0.840
 Vibration     4          0.947              1.054              0.468

 Optimization completed.
    -- Stationary point found.
 Normal termination of Gaussian 09 at Tue Mar  6 11:02:28 2018.
