 Gaussian 09, Revision B.01,
 Gaussian 09:  EM64L-G09RevB.01 12-Aug-2010

 -------------------------------------------------
 #p Temperature=298.15 opt freq UB3LYP/aug-cc-pVDZ
 -------------------------------------------------

 ---------------------------------------
 Pyridine-4-N2-UB3LYP-aug-cc-pVDZ-Duplet
 ---------------------------------------
 Symbolic Z-matrix:
 Charge =  0 Multiplicity = 2

 SCF Done:  E(UB3LYP) =  -356.850677203     A.U. after   28 cycles
 SCF Done:  E(UB3LYP) =  -356.984277990     A.U. after   21 cycles
 SCF Done:  E(UB3LYP) =  -357.098390708     A.U. after   27 cycles
 SCF Done:  E(UB3LYP) =  -357.141587980     A.U. after   24 cycles
 SCF Done:  E(UB3LYP) =  -357.159064998     A.U. after   21 cycles
 SCF Done:  E(UB3LYP) =  -357.164810752     A.U. after   21 cycles
 SCF Done:  E(UB3LYP) =  -357.165975255     A.U. after   17 cycles
 SCF Done:  E(UB3LYP) =  -357.166276139     A.U. after   17 cycles
 SCF Done:  E(UB3LYP) =  -357.166398102     A.U. after   17 cycles
 SCF Done:  E(UB3LYP) =  -357.166501472     A.U. after   17 cycles
 SCF Done:  E(UB3LYP) =  -357.166565317     A.U. after   17 cycles
 SCF Done:  E(UB3LYP) =  -357.166619754     A.U. after   15 cycles
 SCF Done:  E(UB3LYP) =  -357.166642703     A.U. after   21 cycles
 SCF Done:  E(UB3LYP) =  -357.166649010     A.U. after   13 cycles
 SCF Done:  E(UB3LYP) =  -357.166650043     A.U. after   12 cycles
 SCF Done:  E(UB3LYP) =  -357.166650213     A.U. after   24 cycles
 Optimization completed.
    -- Stationary point found.
 Normal termination of Gaussian 09 at Tue Mar 20 08:31:09 2018.

 ----------------------------------------------------------------------
 #P Geom=AllCheck Guess=TCheck SCRF=Check GenChk UB3LYP/Aug-CC-pVDZ Fre
 q
 ----------------------------------------------------------------------

 Pyridine-4-N2-UB3LYP-aug-cc-pVDZ-Duplet
 ---------------------------------------
 Redundant internal coordinates taken from checkpoint file:
 Pyridine-4-N2-UB3LYP-aug-cc-pVDZ-Duplet.chk
 Charge =  0 Multiplicity = 2

                         Standard orientation:
 ---------------------------------------------------------------------
 Center     Atomic      Atomic             Coordinates (Angstroms)
 Number     Number       Type             X           Y           Z
 ---------------------------------------------------------------------
      1          6           0        1.309052    1.261350    0.000023
      2          6           0       -0.078614    1.109600   -0.000059
      3          6           0       -0.580853   -0.193557   -0.000057
      4          6           0        0.292909   -1.276673   -0.000019
      5          6           0        1.665579   -1.003882   -0.000023
      6          1           0        1.749003    2.261028   -0.000071
      7          1           0       -0.746214    1.969735    0.000178
      8          7           0       -2.014437   -0.491362    0.000048
      9          7           0       -2.866154    0.329573    0.000000
     10          1           0        2.387214   -1.823580    0.000101
     11          1           0       -0.088249   -2.296937    0.000012
     12          7           0        2.173420    0.234465    0.000036
 ---------------------------------------------------------------------

 SCF Done:  E(UB3LYP) =  -357.166650213     A.U. after    1 cycles

 The electronic state is 2-A.
 Alpha  occ. eigenvalues --  -14.43380 -14.41415 -14.35714 -10.27415 -10.25006
 Alpha  occ. eigenvalues --  -10.24987 -10.22887 -10.22868  -1.08928  -0.97112
 Alpha  occ. eigenvalues --   -0.85510  -0.79353  -0.71960  -0.66408  -0.60845
 Alpha  occ. eigenvalues --   -0.53303  -0.51520  -0.49129  -0.46729  -0.46469
 Alpha  occ. eigenvalues --   -0.45600  -0.43155  -0.41663  -0.38978  -0.31542
 Alpha  occ. eigenvalues --   -0.29390  -0.28622  -0.22377
 Alpha virt. eigenvalues --   -0.09984  -0.04902  -0.01455  -0.01067   0.00119
 Alpha virt. eigenvalues --    0.01514   0.02889   0.03402   0.04241   0.05510
 Alpha virt. eigenvalues --    0.06831   0.07283   0.07398   0.08135   0.08719

  Beta  occ. eigenvalues --  -14.43009 -14.39884 -14.35738 -10.27024 -10.24993
  Beta  occ. eigenvalues --  -10.24973 -10.22900 -10.22887  -1.07151  -0.97091
  Beta  occ. eigenvalues --   -0.84804  -0.79318  -0.70581  -0.66285  -0.60164
  Beta  occ. eigenvalues --   -0.52366  -0.51123  -0.48417  -0.45881  -0.45869
  Beta  occ. eigenvalues --   -0.43615  -0.41454  -0.40926  -0.37396  -0.31186
  Beta  occ. eigenvalues --   -0.29449  -0.28605
  Beta virt. eigenvalues --   -0.09142  -0.08477  -0.04934  -0.00951  -0.00851
  Beta virt. eigenvalues --    0.00130   0.01588   0.02939   0.03428   0.04231
  Beta virt. eigenvalues --    0.05569   0.06894   0.07321   0.07505   0.08191

 Mulliken atomic charges:
              1
     1  C   -0.158894
     2  C    2.132241
     3  C   -0.249527
     4  C    1.784347
     5  C   -0.199407
     6  H   -0.599854
     7  H   -0.789611
     8  N    0.107521
     9  N   -0.543533
    10  H   -0.596149
    11  H   -0.758368
    12  N   -0.128767
 Sum of Mulliken atomic charges =   0.00000

 Dipole moment (field-independent basis, Debye):
    X=              0.8321    Y=             -0.3325    Z=              0.0001  Tot=              0.8960
 Quadrupole moment (field-independent basis, Debye-Ang):
   XX=            -58.5510   YY=            -39.4027   ZZ=            -47.0219
   XY=             -1.2688   XZ=             -0.0002   YZ=              0.0002

  Exact polarizability: 106.943  -4.142  86.833   0.001   0.000  45.973
 Approx polarizability: 171.766 -12.429 149.576   0.002   0.000  70.926

                     1                      2                      3
                     A                      A                      A
 Frequencies --    60.6637               225.2097               240.7282
 Red. masses --     9.7435                 8.8883                 6.9725
 Frc consts  --     0.0211                 0.2656                 0.2381
 IR Inten    --     1.5831                 4.2340                 4.0639

                     4                      5                      6
                     A                      A                      A
 Frequencies --   387.9408               436.8739               502.3988
 Red. masses --     2.5483                 8.9982                 3.6269
 Frc consts  --     0.2260                 1.0118                 0.5394
 IR Inten    --     0.0150                 0.7644                12.2210

                     7                      8                      9
                     A                      A                      A
 Frequencies --   584.8271               672.4921               743.7560
 Red. masses --     9.2237                 7.0235                 3.5284
 Frc consts  --     1.8587                 1.8715                 1.1500
 IR Inten    --    27.0626                 0.7437                 0.5416

                    10                     11                     12
                     A                      A                      A
 Frequencies --   760.4594               832.6382               877.8770
 Red. masses --     7.4459                 1.3535                 1.2472
 Frc consts  --     2.5370                 0.5529                 0.5663
 IR Inten    --     1.7663                48.1930                 0.2814

                    13                     14                     15
                     A                      A                      A
 Frequencies --   981.9036              1004.8663              1006.3189
 Red. masses --     1.3591                 1.4753                 6.7244
 Frc consts  --     0.7721                 0.8777                 4.0121
 IR Inten    --     0.4514                 0.0027                 4.7269

                    16                     17                     18
                     A                      A                      A
 Frequencies --  1075.3748              1092.8143              1115.8473
 Red. masses --     1.7232                 1.4344                 5.2546
 Frc consts  --     1.1741                 1.0093                 3.8548
 IR Inten    --     4.5001                 0.1193                 4.6125

                    19                     20                     21
                     A                      A                      A
 Frequencies --  1230.0090              1297.1944              1340.1243
 Red. masses --     1.3035                12.1322                 1.3573
 Frc consts  --     1.1619                12.0282                 1.4362
 IR Inten    --     3.2469                 6.5518                 0.9891

                    22                     23                     24
                     A                      A                      A
 Frequencies --  1433.3986              1499.9919              1606.9224
 Red. masses --     2.1103                 2.0906                 5.7160
 Frc consts  --     2.5546                 2.7714                 8.6962
 IR Inten    --    21.9398                 3.3089                21.2173

                    25                     26                     27
                     A                      A                      A
 Frequencies --  1625.4220              1856.2087              3167.1518
 Red. masses --     7.6403                13.7929                 1.0889
 Frc consts  --    11.8930                28.0001                 6.4353
 IR Inten    --    35.5425                18.0442                22.2936

                    28                     29                     30
                     A                      A                      A
 Frequencies --  3169.4718              3209.8570              3212.4067
 Red. masses --     1.0919                 1.0949                 1.0941
 Frc consts  --     6.4629                 6.6466                 6.6521
 IR Inten    --     4.3647                 2.1996                 1.7243

 - Thermochemistry -
 -------------------
 Temperature   298.150 Kelvin.  Pressure   1.00000 Atm.
 Atom     1 has atomic number  6 and mass  12.00000

 Molecular mass:   106.04052 amu.
 Principal axes and moments of inertia in atomic units:
                           1         2         3
     Eigenvalues --   319.104351093.873581412.97792
           X            0.99997  -0.00761   0.00000
           Y            0.00761   0.99997   0.00000
           Z            0.00000   0.00000   1.00000
 This molecule is an asymmetric top.
 Rotational symmetry number  1.
 Rotational temperatures (Kelvin)      0.27143     0.07918     0.06130
 Rotational constants (GHZ):           5.65565     1.64986     1.27726
 Zero-point vibrational energy     222811.3 (Joules/Mol)
                                   53.25319 (Kcal/Mol)
 Warning -- explicit consideration of   7 degrees of freedom as
           vibrations may cause significant error
 Vibrational temperatures:     87.28   324.03   346.35   558.16   628.56
          (Kelvin)            722.84   841.43   967.56  1070.10  1094.13
                             1197.98  1263.07  1412.74  1445.78  1447.87
                             1547.22  1572.31  1605.45  1769.71  1866.37
                             1928.14  2062.34  2158.15  2312.00  2338.62
                             2670.67  4556.82  4560.16  4618.26  4621.93

 Zero-point correction=                           0.084864 (Hartree/Particle)
 Thermal correction to Energy=                    0.091200
 Thermal correction to Enthalpy=                  0.092145
 Thermal correction to Gibbs Free Energy=         0.053247
 Sum of electronic and zero-point Energies=           -357.081786
 Sum of electronic and thermal Energies=              -357.075450
 Sum of electronic and thermal Enthalpies=            -357.074506
 Sum of electronic and thermal Free Energies=         -357.113403

                     E (Thermal)             CV                S
                      KCal/Mol        Cal/Mol-Kelvin    Cal/Mol-Kelvin
 Total                   57.229             22.937             81.867
 Electronic               0.000              0.000              1.377
 Translational            0.889              2.981             39.893
 Rotational               0.889              2.981             27.691
 Vibrational             55.452             16.975             12.905
 Vibration     1          0.597              1.973              4.435
 Vibration     2          0.650              1.803              1.917
 Vibration     3          0.658              1.778              1.797
 Vibration     4          0.756              1.496              1.008
 Vibration     5          0.797              1.390              0.836
 Vibration     6          0.858              1.245              0.652
 Vibration     7          0.942              1.064              0.477

 Optimization completed.
    -- Stationary point found.
 Normal termination of Gaussian 09 at Tue Mar 20 08:38:14 2018.
