 Gaussian 09, Revision B.01,
 Gaussian 09:  EM64L-G09RevB.01 12-Aug-2010

 -------------------------------------------------
 #p Temperature=298.15 opt freq UB3LYP/aug-cc-pVDZ
 -------------------------------------------------

 --------------------------------------
 Pyridine-4+-UB3LYP-aug-cc-pVDZ-Triplet
 --------------------------------------
 Symbolic Z-matrix:
 Charge =  1 Multiplicity = 3

 SCF Done:  E(UB3LYP) =  -247.264467793     A.U. after   22 cycles
 SCF Done:  E(UB3LYP) =  -247.280350131     A.U. after   16 cycles
 SCF Done:  E(UB3LYP) =  -247.281570305     A.U. after   13 cycles
 SCF Done:  E(UB3LYP) =  -247.281612200     A.U. after   13 cycles
 SCF Done:  E(UB3LYP) =  -247.281613767     A.U. after    9 cycles
 Optimization completed.
    -- Stationary point found.
 Normal termination of Gaussian 09 at Fri Jan 21 10:49:42 2005.

 ----------------------------------------------------------------------
 #P Geom=AllCheck Guess=TCheck SCRF=Check GenChk UB3LYP/Aug-CC-pVDZ Fre
 q
 ----------------------------------------------------------------------

 Pyridine-4+-UB3LYP-aug-cc-pVDZ-Triplet
 --------------------------------------
 Redundant internal coordinates taken from checkpoint file:
 Pyridine-4+-UB3LYP-aug-cc-pVDZ-Triplet.chk
 Charge =  1 Multiplicity = 3

                         Standard orientation:
 ---------------------------------------------------------------------
 Center     Atomic      Atomic             Coordinates (Angstroms)
 Number     Number       Type             X           Y           Z
 ---------------------------------------------------------------------
      1          6           0        1.217623   -0.681607    0.000050
      2          6           0        1.242433    0.723712   -0.000056
      3          6           0        0.000003    1.335751    0.000000
      4          6           0       -1.242424    0.723724    0.000056
      5          6           0       -1.217622   -0.681607   -0.000050
      6          1           0        2.086341   -1.343939    0.000111
      7          1           0        2.191873    1.261300   -0.000081
      8          1           0       -2.086371   -1.343945   -0.000106
      9          1           0       -2.191893    1.261308    0.000081
     10          7           0       -0.000003   -1.193508   -0.000001
 ---------------------------------------------------------------------

 SCF Done:  E(UB3LYP) =  -247.281613767     A.U. after    1 cycles

 The electronic state is 3-A.
 Alpha  occ. eigenvalues --  -14.67816 -10.48978 -10.48975 -10.45980 -10.44395
 Alpha  occ. eigenvalues --  -10.44393  -1.25197  -1.04710  -1.03906  -0.89804
 Alpha  occ. eigenvalues --   -0.85647  -0.77592  -0.74592  -0.70705  -0.68536
 Alpha  occ. eigenvalues --   -0.67671  -0.62516  -0.58685  -0.53757  -0.50740
 Alpha  occ. eigenvalues --   -0.47314
 Alpha virt. eigenvalues --   -0.27635  -0.25749  -0.15028  -0.12774  -0.11616
 Alpha virt. eigenvalues --   -0.11426  -0.11024  -0.09565  -0.09520  -0.08783
 Alpha virt. eigenvalues --   -0.06240  -0.05338  -0.05050  -0.04959  -0.03712

  Beta  occ. eigenvalues --  -14.65909 -10.48871 -10.48868 -10.44371 -10.44253
  Beta  occ. eigenvalues --  -10.44239  -1.22032  -1.03026  -1.02019  -0.88747
  Beta  occ. eigenvalues --   -0.83517  -0.73376  -0.73002  -0.69562  -0.67325
  Beta  occ. eigenvalues --   -0.66424  -0.61519  -0.52185  -0.50797
  Beta virt. eigenvalues --   -0.41122  -0.30429  -0.25873  -0.25823  -0.14875
  Beta virt. eigenvalues --   -0.12684  -0.11179  -0.10752  -0.10290  -0.09484
  Beta virt. eigenvalues --   -0.09093  -0.08476  -0.06254  -0.05007  -0.04851

 Mulliken atomic charges:
              1
     1  C    0.345503
     2  C    1.344987
     3  C   -0.546650
     4  C    1.344923
     5  C    0.345408
     6  H   -0.463478
     7  H   -0.477565
     8  H   -0.463420
     9  H   -0.477523
    10  N    0.047814
 Sum of Mulliken atomic charges =   1.00000

 Dipole moment (field-independent basis, Debye):
    X=             -0.0001    Y=             -1.1809    Z=              0.0000  Tot=              1.1809
 Quadrupole moment (field-independent basis, Debye-Ang):
   XX=            -15.5822   YY=            -24.3630   ZZ=            -34.1223
   XY=              0.0001   XZ=              0.0002   YZ=              0.0000

  Exact polarizability:  71.595   0.000  58.631   0.000   0.000  32.965
 Approx polarizability: 127.262   0.000 107.475   0.000   0.000  48.725

                     1                      2                      3
                     A                      A                      A
 Frequencies --   320.8797               347.2831               578.4923
 Red. masses --     2.2149                 5.1817                 6.8316
 Frc consts  --     0.1344                 0.3682                 1.3470
 IR Inten    --     0.0000                23.3285                 0.1264

                     4                      5                      6
                     A                      A                      A
 Frequencies --   583.5961               624.1191               654.7220
 Red. masses --     3.5269                 7.9445                 1.3592
 Frc consts  --     0.7077                 1.8233                 0.3433
 IR Inten    --     0.0369                 1.2161                 0.0000

                     7                      8                      9
                     A                      A                      A
 Frequencies --   757.3993               929.6431               932.3138
 Red. masses --     1.2214                 1.3968                 4.5191
 Frc consts  --     0.4128                 0.7112                 2.3144
 IR Inten    --    78.0902                 0.2612                15.8904

                    10                     11                     12
                     A                      A                      A
 Frequencies --   949.9519              1034.6239              1057.2791
 Red. masses --     1.4360                 3.7059                 2.7376
 Frc consts  --     0.7635                 2.3373                 1.8030
 IR Inten    --     0.0000                 0.2618                 3.3206

                    13                     14                     15
                     A                      A                      A
 Frequencies --  1080.0953              1145.4293              1265.8663
 Red. masses --     1.3545                 1.2104                 1.6008
 Frc consts  --     0.9310                 0.9357                 1.5113
 IR Inten    --     0.3329                 0.7833                25.4725

                    16                     17                     18
                     A                      A                      A
 Frequencies --  1286.6006              1398.8369              1423.2609
 Red. masses --     2.3093                 4.4636                 2.0218
 Frc consts  --     2.2522                 5.1460                 2.4130
 IR Inten    --    56.6395                 4.8497                16.0757

                    19                     20                     21
                     A                      A                      A
 Frequencies --  1512.8141              1614.8717              3177.6874
 Red. masses --     5.0115                 9.5078                 1.0855
 Frc consts  --     6.7575                14.6085                 6.4581
 IR Inten    --     6.8615                 0.3271                33.2207

                    22                     23                     24
                     A                      A                      A
 Frequencies --  3183.2815              3199.7819              3203.3784
 Red. masses --     1.0914                 1.0952                 1.0988
 Frc consts  --     6.5163                 6.6068                 6.6435
 IR Inten    --    48.7688                78.8486                 3.4355

 - Thermochemistry -
 -------------------
 Temperature   298.150 Kelvin.  Pressure   1.00000 Atm.
 Atom     1 has atomic number  6 and mass  12.00000

 Molecular mass:    78.03437 amu.
 Principal axes and moments of inertia in atomic units:
                           1         2         3
     Eigenvalues --   256.84918 325.27896 582.12813
           X            1.00000   0.00000   0.00000
           Y            0.00000   1.00000   0.00000
           Z            0.00000   0.00000   1.00000
 This molecule is an asymmetric top.
 Rotational symmetry number  1.
 Rotational temperatures (Kelvin)      0.33722     0.26628     0.14879
 Rotational constants (GHZ):           7.02646     5.54829     3.10025
 Zero-point vibrational energy     192970.9 (Joules/Mol)
                                   46.12114 (Kcal/Mol)
 Warning -- explicit consideration of   4 degrees of freedom as
           vibrations may cause significant error
 Vibrational temperatures:    461.67   499.66   832.32   839.66   897.97
          (Kelvin)            942.00  1089.73  1337.55  1341.39  1366.77
                             1488.59  1521.19  1554.01  1648.02  1821.30
                             1851.13  2012.61  2047.75  2176.60  2323.44
                             4571.98  4580.03  4603.77  4608.94

 Zero-point correction=                           0.073499 (Hartree/Particle)
 Thermal correction to Energy=                    0.078099
 Thermal correction to Enthalpy=                  0.079044
 Thermal correction to Gibbs Free Energy=         0.044943
 Sum of electronic and zero-point Energies=           -247.208115
 Sum of electronic and thermal Energies=              -247.203514
 Sum of electronic and thermal Enthalpies=            -247.202570
 Sum of electronic and thermal Free Energies=         -247.236671

                     E (Thermal)             CV                S
                      KCal/Mol        Cal/Mol-Kelvin    Cal/Mol-Kelvin
 Total                   49.008             17.143             71.771
 Electronic               0.000              0.000              2.183
 Translational            0.889              2.981             38.979
 Rotational               0.889              2.981             25.390
 Vibrational             47.231             11.182              5.220
 Vibration     1          0.706              1.634              1.306
 Vibration     2          0.725              1.581              1.178
 Vibration     3          0.935              1.078              0.488
 Vibration     4          0.940              1.067              0.479

 Optimization completed.
    -- Stationary point found.
 Normal termination of Gaussian 09 at Fri Jan 21 10:52:07 2005.
