 Gaussian 09, Revision B.01,
 Gaussian 09:  EM64L-G09RevB.01 12-Aug-2010

 -------------------------------------------------
 #p Temperature=298.15 opt freq UB3LYP/aug-cc-pVDZ
 -------------------------------------------------

 -----------------------------------------
 Pyrimidine-5-N2-UB3LYP-aug-cc-pVDZ-Duplet
 -----------------------------------------
 Symbolic Z-matrix:
 Charge =  0 Multiplicity = 2

 SCF Done:  E(UB3LYP) =  -372.979127811     A.U. after   24 cycles
 SCF Done:  E(UB3LYP) =  -373.083524479     A.U. after   24 cycles
 SCF Done:  E(UB3LYP) =  -373.141415276     A.U. after   25 cycles
 SCF Done:  E(UB3LYP) =  -373.180396459     A.U. after   21 cycles
 SCF Done:  E(UB3LYP) =  -373.194152217     A.U. after   21 cycles
 SCF Done:  E(UB3LYP) =  -373.201363790     A.U. after   17 cycles
 SCF Done:  E(UB3LYP) =  -373.204275437     A.U. after   19 cycles
 SCF Done:  E(UB3LYP) =  -373.205678797     A.U. after   20 cycles
 SCF Done:  E(UB3LYP) =  -373.206359779     A.U. after   19 cycles
 SCF Done:  E(UB3LYP) =  -373.206584106     A.U. after   19 cycles
 SCF Done:  E(UB3LYP) =  -373.206646822     A.U. after   17 cycles
 SCF Done:  E(UB3LYP) =  -373.206654973     A.U. after   13 cycles
 SCF Done:  E(UB3LYP) =  -373.206657718     A.U. after   13 cycles
 SCF Done:  E(UB3LYP) =  -373.206658098     A.U. after   23 cycles
 SCF Done:  E(UB3LYP) =  -373.206658140     A.U. after   10 cycles
 Optimization completed.
    -- Stationary point found.
 Normal termination of Gaussian 09 at Tue Mar 20 09:49:29 2018.

 ----------------------------------------------------------------------
 #P Geom=AllCheck Guess=TCheck SCRF=Check GenChk UB3LYP/Aug-CC-pVDZ Fre
 q
 ----------------------------------------------------------------------

 Pyrimidine-5-N2-UB3LYP-aug-cc-pVDZ-Duplet
 -----------------------------------------
 Redundant internal coordinates taken from checkpoint file:
 Pyrimidine-5-N2-UB3LYP-aug-cc-pVDZ-Duplet.chk
 Charge =  0 Multiplicity = 2

                         Standard orientation:
 ---------------------------------------------------------------------
 Center     Atomic      Atomic             Coordinates (Angstroms)
 Number     Number       Type             X           Y           Z
 ---------------------------------------------------------------------
      1          6           0        0.032114   -1.106370    0.000125
      2          6           0        0.562375    0.188529    0.000028
      3          6           0       -0.330371    1.258431    0.000044
      4          6           0       -2.059978   -0.212427   -0.000106
      5          1           0        0.685683   -1.981244    0.000470
      6          7           0        1.984542    0.483757   -0.000090
      7          7           0        2.840039   -0.336294   -0.000054
      8          1           0       -3.137959   -0.380276   -0.000333
      9          1           0        0.036886    2.287133    0.000169
     10          7           0       -1.653627    1.062385    0.000068
     11          7           0       -1.286588   -1.309076   -0.000045
 ---------------------------------------------------------------------

 SCF Done:  E(UB3LYP) =  -373.206658140     A.U. after    1 cycles

 The electronic state is 2-A.
 Alpha  occ. eigenvalues --  -14.44169 -14.41963 -14.37406 -14.37275 -10.28751
 Alpha  occ. eigenvalues --  -10.27760 -10.27666 -10.27468  -1.09596  -1.02287
 Alpha  occ. eigenvalues --   -0.92766  -0.85240  -0.73231  -0.69759  -0.63207
 Alpha  occ. eigenvalues --   -0.56602  -0.55953  -0.49283  -0.48064  -0.46062
 Alpha  occ. eigenvalues --   -0.44645  -0.44090  -0.43215  -0.35261  -0.34539
 Alpha  occ. eigenvalues --   -0.31745  -0.28761  -0.22887
 Alpha virt. eigenvalues --   -0.10539  -0.07920  -0.02447  -0.00927   0.00807
 Alpha virt. eigenvalues --    0.01150   0.02931   0.03579   0.04489   0.05270
 Alpha virt. eigenvalues --    0.07214   0.07644   0.08173   0.08819   0.08953

  Beta  occ. eigenvalues --  -14.43800 -14.40412 -14.37374 -14.37258 -10.28768
  Beta  occ. eigenvalues --  -10.27676 -10.27507 -10.27367  -1.07830  -1.02205
  Beta  occ. eigenvalues --   -0.92729  -0.84399  -0.72311  -0.69640  -0.62104
  Beta  occ. eigenvalues --   -0.56359  -0.55667  -0.47704  -0.45851  -0.45672
  Beta  occ. eigenvalues --   -0.44315  -0.43654  -0.39611  -0.35277  -0.34206
  Beta  occ. eigenvalues --   -0.31328  -0.28524
  Beta virt. eigenvalues --   -0.09767  -0.08929  -0.07954  -0.01870  -0.00815
  Beta virt. eigenvalues --    0.00830   0.01210   0.02985   0.03622   0.04570
  Beta virt. eigenvalues --    0.05320   0.07227   0.07643   0.08287   0.08957

 Mulliken atomic charges:
              1
     1  C    0.897040
     2  C    0.796665
     3  C    0.575407
     4  C    0.425687
     5  H   -0.581968
     6  N    0.076850
     7  N   -0.562410
     8  H   -0.401717
     9  H   -0.587755
    10  N   -0.320907
    11  N   -0.316893
 Sum of Mulliken atomic charges =   0.00000

 Dipole moment (field-independent basis, Debye):
    X=             -0.7659    Y=              0.2835    Z=              0.0002  Tot=              0.8167
 Quadrupole moment (field-independent basis, Debye-Ang):
   XX=            -52.8893   YY=            -47.0692   ZZ=            -45.1221
   XY=              0.8993   XZ=              0.0014   YZ=             -0.0005

  Exact polarizability: 104.966  -2.660  75.756   0.002   0.000  42.410
 Approx polarizability: 168.202  -9.664 132.118   0.003   0.000  65.748

                     1                      2                      3
                     A                      A                      A
 Frequencies --    64.7943               222.9614               231.4831
 Red. masses --     9.0510                 4.5455                 7.6954
 Frc consts  --     0.0224                 0.1331                 0.2430
 IR Inten    --     1.3995                 0.8283                 5.0161

                     4                      5                      6
                     A                      A                      A
 Frequencies --   412.8777               426.8049               452.8351
 Red. masses --     4.0303                 4.4106                 8.8816
 Frc consts  --     0.4048                 0.4734                 1.0731
 IR Inten    --     0.0128                 4.0490                 4.4403

                     7                      8                      9
                     A                      A                      A
 Frequencies --   601.4002               630.1027               733.5043
 Red. masses --     9.9065                 9.0128                 2.2572
 Frc consts  --     2.1110                 2.1083                 0.7155
 IR Inten    --    18.4976                12.7003                29.4768

                    10                     11                     12
                     A                      A                      A
 Frequencies --   797.7418               940.5826               994.2533
 Red. masses --    10.7626                 1.7235                 1.3874
 Frc consts  --     4.0354                 0.8983                 0.8080
 IR Inten    --     9.2146                 7.6500                 0.0396

                    13                     14                     15
                     A                      A                      A
 Frequencies --  1024.8929              1046.5606              1114.0298
 Red. masses --     1.5066                 4.4180                 7.4113
 Frc consts  --     0.9324                 2.8510                 5.4192
 IR Inten    --     0.5529                 6.0133                 3.7027

                    16                     17                     18
                     A                      A                      A
 Frequencies --  1158.1019              1205.2243              1251.3425
 Red. masses --     2.2637                 1.7288                11.2245
 Frc consts  --     1.7888                 1.4795                10.3555
 IR Inten    --     0.1384                18.4972                 5.4588

                    19                     20                     21
                     A                      A                      A
 Frequencies --  1354.7233              1429.2061              1458.9791
 Red. masses --     1.2485                 2.4113                 2.0151
 Frc consts  --     1.3501                 2.9019                 2.5272
 IR Inten    --     0.6824                58.7140                 8.5049

                    22                     23                     24
                     A                      A                      A
 Frequencies --  1591.9536              1610.8855              1846.8169
 Red. masses --     6.2409                 6.4273                13.7436
 Frc consts  --     9.3188                 9.8267                27.6185
 IR Inten    --    74.3571                40.0421                12.4367

                    25                     26                     27
                     A                      A                      A
 Frequencies --  3174.8435              3177.8815              3188.4105
 Red. masses --     1.0924                 1.0924                 1.0932
 Frc consts  --     6.4874                 6.5001                 6.5477
 IR Inten    --     5.8666                 1.0041                 7.4348

 - Thermochemistry -
 -------------------
 Temperature   298.150 Kelvin.  Pressure   1.00000 Atm.
 Atom     1 has atomic number  6 and mass  12.00000

 Molecular mass:   107.03577 amu.
 Principal axes and moments of inertia in atomic units:
                           1         2         3
     Eigenvalues --   316.740201056.861081373.60127
           X            1.00000  -0.00038   0.00000
           Y            0.00038   1.00000   0.00000
           Z            0.00000   0.00000   1.00000
 This molecule is an asymmetric top.
 Rotational symmetry number  1.
 Rotational temperatures (Kelvin)      0.27345     0.08195     0.06306
 Rotational constants (GHZ):           5.69786     1.70764     1.31388
 Zero-point vibrational energy     192259.0 (Joules/Mol)
                                   45.95100 (Kcal/Mol)
 Warning -- explicit consideration of   7 degrees of freedom as
           vibrations may cause significant error
 Vibrational temperatures:     93.22   320.79   333.05   594.04   614.08
          (Kelvin)            651.53   865.28   906.58  1055.35  1147.77
                             1353.29  1430.51  1474.59  1505.77  1602.84
                             1666.25  1734.05  1800.40  1949.14  2056.31
                             2099.14  2290.46  2317.70  2657.15  4567.89
                             4572.26  4587.41

 Zero-point correction=                           0.073228 (Hartree/Particle)
 Thermal correction to Energy=                    0.079478
 Thermal correction to Enthalpy=                  0.080423
 Thermal correction to Gibbs Free Energy=         0.041673
 Sum of electronic and zero-point Energies=           -373.133431
 Sum of electronic and thermal Energies=              -373.127180
 Sum of electronic and thermal Enthalpies=            -373.126235
 Sum of electronic and thermal Free Energies=         -373.164985

                     E (Thermal)             CV                S
                      KCal/Mol        Cal/Mol-Kelvin    Cal/Mol-Kelvin
 Total                   49.874             21.978             81.555
 Electronic               0.000              0.000              1.377
 Translational            0.889              2.981             39.921
 Rotational               0.889              2.981             27.622
 Vibrational             48.096             16.016             12.635
 Vibration     1          0.597              1.971              4.306
 Vibration     2          0.649              1.806              1.935
 Vibration     3          0.653              1.793              1.867
 Vibration     4          0.777              1.442              0.917
 Vibration     5          0.788              1.412              0.869
 Vibration     6          0.811              1.355              0.787
 Vibration     7          0.960              1.029              0.447

 Optimization completed.
    -- Stationary point found.
 Normal termination of Gaussian 09 at Tue Mar 20 09:55:12 2018.
