 Gaussian 09, Revision B.01,
 Gaussian 09:  EM64L-G09RevB.01 12-Aug-2010

 -------------------------------------------------
 #p Temperature=298.15 opt freq UB3LYP/aug-cc-pVDZ
 -------------------------------------------------

 -------------------------------------------
 Pyrimidine-4-N2+-UB3LYP-aug-cc-pVDZ-Singlet
 -------------------------------------------
 Symbolic Z-matrix:
 Charge =  1 Multiplicity = 1

 SCF Done:  E(UB3LYP) =  -372.906353748     A.U. after   17 cycles
 SCF Done:  E(UB3LYP) =  -372.930338157     A.U. after   14 cycles
 SCF Done:  E(UB3LYP) =  -372.931843956     A.U. after   12 cycles
 SCF Done:  E(UB3LYP) =  -372.932163740     A.U. after   12 cycles
 SCF Done:  E(UB3LYP) =  -372.932267030     A.U. after   11 cycles
 SCF Done:  E(UB3LYP) =  -372.932274440     A.U. after   17 cycles
 SCF Done:  E(UB3LYP) =  -372.932272816     A.U. after   17 cycles
 SCF Done:  E(UB3LYP) =  -372.932276284     A.U. after   17 cycles
 Optimization completed.
    -- Stationary point found.
 Normal termination of Gaussian 09 at Tue Mar  6 10:37:16 2018.

 ----------------------------------------------------------------------
 #P Geom=AllCheck Guess=TCheck SCRF=Check GenChk UB3LYP/Aug-CC-pVDZ Fre
 q
 ----------------------------------------------------------------------

 Pyrimidine-4-N2+-UB3LYP-aug-cc-pVDZ-Singlet
 -------------------------------------------
 Redundant internal coordinates taken from checkpoint file:
 Pyrimidine-4-N2+-UB3LYP-aug-cc-pVDZ-Singlet.chk
 Charge =  1 Multiplicity = 1

                         Standard orientation:
 ---------------------------------------------------------------------
 Center     Atomic      Atomic             Coordinates (Angstroms)
 Number     Number       Type             X           Y           Z
 ---------------------------------------------------------------------
      1          6           0        1.374440   -1.191316    0.000026
      2          6           0       -0.486529    0.026716    0.000000
      3          6           0        0.167741    1.248070    0.000012
      4          6           0        1.569816    1.097611   -0.000016
      5          1           0        1.862052   -2.165615   -0.000036
      6          7           0       -1.935500    0.012825    0.000019
      7          7           0       -3.041019   -0.030392   -0.000022
      8          1           0        2.219332    1.975087    0.000000
      9          1           0       -0.330794    2.215867    0.000046
     10          7           0        2.156205   -0.099397   -0.000014
     11          7           0        0.034114   -1.184726   -0.000002
 ---------------------------------------------------------------------

 SCF Done:  E(UB3LYP) =  -372.932276284     A.U. after    2 cycles

 The electronic state is 1-A.
 Alpha  occ. eigenvalues --  -14.75888 -14.73748 -14.57308 -14.55089 -10.54028
 Alpha  occ. eigenvalues --  -10.46895 -10.45371 -10.44620  -1.42136  -1.22538
 Alpha  occ. eigenvalues --   -1.13117  -1.06564  -0.98017  -0.88937  -0.82545
 Alpha  occ. eigenvalues --   -0.77209  -0.76546  -0.73762  -0.72359  -0.69837
 Alpha  occ. eigenvalues --   -0.67208  -0.64706  -0.62193  -0.54186  -0.52840
 Alpha  occ. eigenvalues --   -0.50929  -0.46870
 Alpha virt. eigenvalues --   -0.33500  -0.31219  -0.25163  -0.22243  -0.17240
 Alpha virt. eigenvalues --   -0.12985  -0.12163  -0.11285  -0.10328  -0.09357
 Alpha virt. eigenvalues --   -0.08730  -0.08191  -0.07264  -0.05973  -0.05136

  Beta  occ. eigenvalues --  -14.75888 -14.73748 -14.57308 -14.55089 -10.54028
  Beta  occ. eigenvalues --  -10.46895 -10.45371 -10.44620  -1.42136  -1.22538
  Beta  occ. eigenvalues --   -1.13117  -1.06564  -0.98017  -0.88937  -0.82545
  Beta  occ. eigenvalues --   -0.77209  -0.76546  -0.73762  -0.72359  -0.69837
  Beta  occ. eigenvalues --   -0.67208  -0.64706  -0.62193  -0.54186  -0.52840
  Beta  occ. eigenvalues --   -0.50929  -0.46870
  Beta virt. eigenvalues --   -0.33500  -0.31219  -0.25163  -0.22243  -0.17240
  Beta virt. eigenvalues --   -0.12985  -0.12163  -0.11285  -0.10328  -0.09357
  Beta virt. eigenvalues --   -0.08730  -0.08191  -0.07264  -0.05973  -0.05136

 Mulliken atomic charges:
              1
     1  C    0.659092
     2  C    0.231199
     3  C    1.642086
     4  C    0.176769
     5  H   -0.406007
     6  N    0.566974
     7  N   -0.538384
     8  H   -0.453157
     9  H   -0.589014
    10  N   -0.184325
    11  N   -0.105233
 Sum of Mulliken atomic charges =   1.00000

 Dipole moment (field-independent basis, Debye):
    X=             -2.9642    Y=              2.3529    Z=              0.0001  Tot=              3.7845
 Quadrupole moment (field-independent basis, Debye-Ang):
   XX=            -27.1572   YY=            -32.3559   ZZ=            -42.2313
   XY=             -0.9718   XZ=              0.0000   YZ=              0.0001

  Exact polarizability:  99.997   0.581  69.495   0.000   0.000  36.918
 Approx polarizability: 179.547   3.512 123.931   0.001   0.000  57.281

                     1                      2                      3
                     A                      A                      A
 Frequencies --   136.2941               153.9190               335.0708
 Red. masses --     9.2316                 8.5892                 3.5796
 Frc consts  --     0.1010                 0.1199                 0.2368
 IR Inten    --     0.7239                 0.6001                 4.7339

                     4                      5                      6
                     A                      A                      A
 Frequencies --   383.2178               420.8939               532.6927
 Red. masses --     5.7758                11.8809                 9.5659
 Frc consts  --     0.4998                 1.2401                 1.5993
 IR Inten    --     0.3959                13.1481                 0.3380

                     7                      8                      9
                     A                      A                      A
 Frequencies --   557.5767               673.0323               730.5761
 Red. masses --     4.2030                 8.1214                 8.5635
 Frc consts  --     0.7699                 2.1675                 2.6930
 IR Inten    --    11.3051                10.7148                 9.2901

                    10                     11                     12
                     A                      A                      A
 Frequencies --   749.9231               838.0841               984.4208
 Red. masses --     4.2648                 1.3217                 1.4355
 Frc consts  --     1.4131                 0.5469                 0.8196
 IR Inten    --     9.1037                25.4203                 0.5588

                    13                     14                     15
                     A                      A                      A
 Frequencies --   996.2215              1029.7098              1049.9663
 Red. masses --     9.5441                 1.4766                 3.0388
 Frc consts  --     5.5808                 0.9224                 1.9738
 IR Inten    --     9.6535                 0.0764                19.8709

                    16                     17                     18
                     A                      A                      A
 Frequencies --  1072.9896              1175.8679              1263.5913
 Red. masses --     2.3012                 2.2240                 5.0442
 Frc consts  --     1.5610                 1.8117                 4.7452
 IR Inten    --     1.1374                13.6760                11.0831

                    19                     20                     21
                     A                      A                      A
 Frequencies --  1335.5703              1406.9856              1444.0241
 Red. masses --     1.6872                 1.8974                 1.9309
 Frc consts  --     1.7732                 2.2130                 2.3723
 IR Inten    --     5.1797                44.7034                14.5851

                    22                     23                     24
                     A                      A                      A
 Frequencies --  1530.6279              1631.4745              2398.2835
 Red. masses --     4.2620                 8.5965                13.9854
 Frc consts  --     5.8830                13.4813                47.3943
 IR Inten    --    20.8129                64.3338                27.4365

                    25                     26                     27
                     A                      A                      A
 Frequencies --  3194.8535              3220.8265              3228.3652
 Red. masses --     1.0939                 1.0958                 1.0984
 Frc consts  --     6.5783                 6.6978                 6.7447
 IR Inten    --     3.7769                 3.6578                14.2929

 - Thermochemistry -
 -------------------
 Temperature   298.150 Kelvin.  Pressure   1.00000 Atm.
 Atom     1 has atomic number  6 and mass  12.00000

 Molecular mass:   107.03577 amu.
 Principal axes and moments of inertia in atomic units:
                           1         2         3
     Eigenvalues --   298.415151110.362491408.77764
           X            1.00000  -0.00136   0.00000
           Y            0.00136   1.00000   0.00000
           Z            0.00000   0.00000   1.00000
 This molecule is an asymmetric top.
 Rotational symmetry number  1.
 Rotational temperatures (Kelvin)      0.29025     0.07800     0.06148
 Rotational constants (GHZ):           6.04775     1.62536     1.28107
 Zero-point vibrational energy     194244.0 (Joules/Mol)
                                   46.42543 (Kcal/Mol)
 Warning -- explicit consideration of   7 degrees of freedom as
           vibrations may cause significant error
 Vibrational temperatures:    196.10   221.45   482.09   551.36   605.57
          (Kelvin)            766.42   802.23   968.34  1051.13  1078.97
                             1205.81  1416.36  1433.34  1481.52  1510.67
                             1543.79  1691.81  1818.02  1921.59  2024.34
                             2077.63  2202.23  2347.33  3450.59  4596.68
                             4634.05  4644.89

 Zero-point correction=                           0.073984 (Hartree/Particle)
 Thermal correction to Energy=                    0.080116
 Thermal correction to Enthalpy=                  0.081060
 Thermal correction to Gibbs Free Energy=         0.043566
 Sum of electronic and zero-point Energies=           -372.858293
 Sum of electronic and thermal Energies=              -372.852160
 Sum of electronic and thermal Enthalpies=            -372.851216
 Sum of electronic and thermal Free Energies=         -372.888710

                     E (Thermal)             CV                S
                      KCal/Mol        Cal/Mol-Kelvin    Cal/Mol-Kelvin
 Total                   50.274             22.177             78.913
 Electronic               0.000              0.000              0.000
 Translational            0.889              2.981             39.921
 Rotational               0.889              2.981             27.637
 Vibrational             48.496             16.215             11.356
 Vibration     1          0.614              1.917              2.855
 Vibration     2          0.619              1.898              2.623
 Vibration     3          0.716              1.605              1.236
 Vibration     4          0.752              1.506              1.026
 Vibration     5          0.783              1.425              0.889
 Vibration     6          0.888              1.178              0.581
 Vibration     7          0.913              1.123              0.529

 Optimization completed.
    -- Stationary point found.
 Normal termination of Gaussian 09 at Tue Mar  6 10:42:34 2018.
