 Gaussian 09, Revision B.01,
 Gaussian 09:  EM64L-G09RevB.01 12-Aug-2010

 -------------------------------------------------
 #p Temperature=298.15 opt freq UB3LYP/aug-cc-pVDZ
 -------------------------------------------------

 -----------------------------------------
 Pyridine-3-N2+-UB3LYP-aug-cc-pVDZ-Singlet
 -----------------------------------------
 Symbolic Z-matrix:
 Charge =  1 Multiplicity = 1

 SCF Done:  E(UB3LYP) =  -356.896019615     A.U. after   16 cycles
 SCF Done:  E(UB3LYP) =  -356.905823513     A.U. after   13 cycles
 SCF Done:  E(UB3LYP) =  -356.906212049     A.U. after   16 cycles
 SCF Done:  E(UB3LYP) =  -356.906252258     A.U. after   16 cycles
 SCF Done:  E(UB3LYP) =  -356.906258854     A.U. after   10 cycles
 SCF Done:  E(UB3LYP) =  -356.906259487     A.U. after   19 cycles
 Optimization completed.
    -- Stationary point found.
 Normal termination of Gaussian 09 at Tue Mar  6 09:35:38 2018.

 ----------------------------------------------------------------------
 #P Geom=AllCheck Guess=TCheck SCRF=Check GenChk UB3LYP/Aug-CC-pVDZ Fre
 q
 ----------------------------------------------------------------------

 Pyridine-3-N2+-UB3LYP-aug-cc-pVDZ-Singlet
 -----------------------------------------
 Redundant internal coordinates taken from checkpoint file:
 Pyridine-3-N2+-UB3LYP-aug-cc-pVDZ-Singlet.chk
 Charge =  1 Multiplicity = 1

                         Standard orientation:
 ---------------------------------------------------------------------
 Center     Atomic      Atomic             Coordinates (Angstroms)
 Number     Number       Type             X           Y           Z
 ---------------------------------------------------------------------
      1          6           0        0.110113   -1.217582    0.000279
      2          6           0       -0.550814    0.036548    0.000022
      3          6           0        0.153344    1.257960    0.000051
      4          6           0        1.535228    1.158694    0.000023
      5          1           0       -0.450496   -2.154852   -0.000239
      6          7           0       -1.929634    0.042354   -0.000027
      7          7           0       -3.043262   -0.000738   -0.000074
      8          1           0        2.156466    2.053073    0.000170
      9          1           0       -0.366626    2.215135    0.000146
     10          7           0        1.430710   -1.269492   -0.000022
     11          6           0        2.125990   -0.118563   -0.000336
     12          1           0        3.212792   -0.220573    0.000550
 ---------------------------------------------------------------------

 SCF Done:  E(UB3LYP) =  -356.906259487     A.U. after    2 cycles

 The electronic state is 1-A.
 Alpha  occ. eigenvalues --  -14.74226 -14.70694 -14.54167 -10.49338 -10.45843
 Alpha  occ. eigenvalues --  -10.43943 -10.43893 -10.40669  -1.39649  -1.16876
 Alpha  occ. eigenvalues --   -1.10256  -1.00836  -0.93025  -0.86146  -0.80540
 Alpha  occ. eigenvalues --   -0.74790  -0.74729  -0.72782  -0.70825  -0.68532
 Alpha  occ. eigenvalues --   -0.65172  -0.62361  -0.61272  -0.58897  -0.51308
 Alpha  occ. eigenvalues --   -0.48566  -0.46339
 Alpha virt. eigenvalues --   -0.31426  -0.29677  -0.23988  -0.20103  -0.15975
 Alpha virt. eigenvalues --   -0.12446  -0.11479  -0.11149  -0.10369  -0.09230
 Alpha virt. eigenvalues --   -0.08143  -0.07098  -0.06091  -0.05843  -0.05419

  Beta  occ. eigenvalues --  -14.74226 -14.70694 -14.54167 -10.49338 -10.45843
  Beta  occ. eigenvalues --  -10.43943 -10.43893 -10.40669  -1.39649  -1.16876
  Beta  occ. eigenvalues --   -1.10256  -1.00836  -0.93025  -0.86146  -0.80540
  Beta  occ. eigenvalues --   -0.74790  -0.74729  -0.72782  -0.70825  -0.68532
  Beta  occ. eigenvalues --   -0.65172  -0.62361  -0.61272  -0.58897  -0.51308
  Beta  occ. eigenvalues --   -0.48566  -0.46339
  Beta virt. eigenvalues --   -0.31426  -0.29677  -0.23988  -0.20103  -0.15975
  Beta virt. eigenvalues --   -0.12446  -0.11479  -0.11149  -0.10369  -0.09230
  Beta virt. eigenvalues --   -0.08143  -0.07098  -0.06091  -0.05843  -0.05419

 Mulliken atomic charges:
              1
     1  C    0.348404
     2  C    1.114570
     3  C    0.999081
     4  C    1.139149
     5  H   -0.617112
     6  N    0.418422
     7  N   -0.602620
     8  H   -0.607420
     9  H   -0.640413
    10  N   -0.161313
    11  C    0.164262
    12  H   -0.555010
 Sum of Mulliken atomic charges =   1.00000

 Dipole moment (field-independent basis, Debye):
    X=             -1.7666    Y=              2.1135    Z=              0.0003  Tot=              2.7546
 Quadrupole moment (field-independent basis, Debye-Ang):
   XX=            -23.4605   YY=            -35.0472   ZZ=            -43.8156
   XY=              4.7053   XZ=              0.0016   YZ=              0.0009

  Exact polarizability: 119.884   0.093  71.711  -0.002   0.000  39.353
 Approx polarizability: 238.982  -7.916 123.724  -0.009  -0.002  60.850

                     1                      2                      3
                     A                      A                      A
 Frequencies --   145.1606               170.0288               331.8244
 Red. masses --     5.2534                 7.4962                 3.1597
 Frc consts  --     0.0652                 0.1277                 0.2050
 IR Inten    --     0.0711                 2.2646                 0.0036

                     4                      5                      6
                     A                      A                      A
 Frequencies --   400.7625               470.2285               532.5630
 Red. masses --     4.0828                 8.8878                 8.1203
 Frc consts  --     0.3863                 1.1579                 1.3570
 IR Inten    --     3.4177                 3.5747                 3.0089

                     7                      8                      9
                     A                      A                      A
 Frequencies --   552.4320               622.6509               681.5248
 Red. masses --     7.3643                 8.5907                 2.2509
 Frc consts  --     1.3242                 1.9623                 0.6160
 IR Inten    --     4.1885                 3.8876                33.0266

                    10                     11                     12
                     A                      A                      A
 Frequencies --   778.6884               808.8000               928.4289
 Red. masses --     7.5444                 1.4166                 1.4437
 Frc consts  --     2.6953                 0.5460                 0.7332
 IR Inten    --     4.7187                23.5814                 2.2995

                    13                     14                     15
                     A                      A                      A
 Frequencies --   989.0045              1015.3426              1029.5448
 Red. masses --     1.3315                 4.0070                 1.5150
 Frc consts  --     0.7673                 2.4338                 0.9462
 IR Inten    --     0.8941                16.9553                 0.2079

                    16                     17                     18
                     A                      A                      A
 Frequencies --  1051.3015              1128.3719              1158.7370
 Red. masses --     2.9011                 2.2312                 1.9301
 Frc consts  --     1.8892                 1.6737                 1.5269
 IR Inten    --     9.3543                83.3624                45.0306

                    19                     20                     21
                     A                      A                      A
 Frequencies --  1223.4675              1319.4244              1355.6544
 Red. masses --     1.4491                 5.6548                 1.3081
 Frc consts  --     1.2780                 5.8001                 1.4164
 IR Inten    --    12.7074                 8.4174                 3.4110

                    22                     23                     24
                     A                      A                      A
 Frequencies --  1442.2996              1483.4489              1574.5324
 Red. masses --     2.1356                 2.1521                 4.9097
 Frc consts  --     2.6175                 2.7903                 7.1715
 IR Inten    --    17.7139                14.0731                51.4296

                    25                     26                     27
                     A                      A                      A
 Frequencies --  1598.6454              2333.0708              3184.8013
 Red. masses --     6.3196                13.9388                 1.0945
 Frc consts  --     9.5158                44.7023                 6.5407
 IR Inten    --   166.8787               229.8149                 4.0899

                    28                     29                     30
                     A                      A                      A
 Frequencies --  3197.3259              3213.8849              3225.3910
 Red. masses --     1.0932                 1.0926                 1.0998
 Frc consts  --     6.5847                 6.6495                 6.7412
 IR Inten    --     2.3464                 6.5455                 9.7480

 - Thermochemistry -
 -------------------
 Temperature   298.150 Kelvin.  Pressure   1.00000 Atm.
 Atom     1 has atomic number  6 and mass  12.00000

 Molecular mass:   106.04052 amu.
 Principal axes and moments of inertia in atomic units:
                           1         2         3
     Eigenvalues --   319.564251115.555721435.11995
           X            0.99984   0.01765   0.00001
           Y           -0.01765   0.99984   0.00001
           Z           -0.00001  -0.00001   1.00000
 This molecule is an asymmetric top.
 Rotational symmetry number  1.
 Rotational temperatures (Kelvin)      0.27104     0.07764     0.06035
 Rotational constants (GHZ):           5.64751     1.61780     1.25755
 Zero-point vibrational energy     226975.5 (Joules/Mol)
                                   54.24845 (Kcal/Mol)
 Warning -- explicit consideration of   7 degrees of freedom as
           vibrations may cause significant error
 Vibrational temperatures:    208.85   244.63   477.42   576.61   676.55
          (Kelvin)            766.24   794.83   895.85   980.56  1120.36
                             1163.68  1335.80  1422.96  1460.85  1481.28
                             1512.59  1623.47  1667.16  1760.29  1898.36
                             1950.48  2075.14  2134.35  2265.40  2300.09
                             3356.76  4582.21  4600.23  4624.06  4640.61

 Zero-point correction=                           0.086450 (Hartree/Particle)
 Thermal correction to Energy=                    0.092579
 Thermal correction to Enthalpy=                  0.093524
 Thermal correction to Gibbs Free Energy=         0.056117
 Sum of electronic and zero-point Energies=           -356.819809
 Sum of electronic and thermal Energies=              -356.813680
 Sum of electronic and thermal Enthalpies=            -356.812736
 Sum of electronic and thermal Free Energies=         -356.850142

                     E (Thermal)             CV                S
                      KCal/Mol        Cal/Mol-Kelvin    Cal/Mol-Kelvin
 Total                   58.094             22.739             78.728
 Electronic               0.000              0.000              0.000
 Translational            0.889              2.981             39.893
 Rotational               0.889              2.981             27.728
 Vibrational             56.317             16.778             11.108
 Vibration     1          0.617              1.908              2.735
 Vibration     2          0.625              1.879              2.435
 Vibration     3          0.714              1.612              1.251
 Vibration     4          0.767              1.468              0.960
 Vibration     5          0.827              1.316              0.737
 Vibration     6          0.888              1.178              0.582
 Vibration     7          0.908              1.134              0.539

 Optimization completed.
    -- Stationary point found.
 Normal termination of Gaussian 09 at Tue Mar  6 09:42:20 2018.
