 Gaussian 09, Revision B.01,
 Gaussian 09:  EM64L-G09RevB.01 12-Aug-2010

 -------------------------------------------------
 #p Temperature=298.15 opt freq UB3LYP/aug-cc-pVDZ
 -------------------------------------------------

 ---------------------------------------
 Pyridine-3-N2-UB3LYP-aug-cc-pVDZ-Duplet
 ---------------------------------------
 Symbolic Z-matrix:
 Charge =  0 Multiplicity = 2

 SCF Done:  E(UB3LYP) =  -356.970424826     A.U. after   27 cycles
 SCF Done:  E(UB3LYP) =  -357.062904556     A.U. after   21 cycles
 SCF Done:  E(UB3LYP) =  -357.122477517     A.U. after   20 cycles
 SCF Done:  E(UB3LYP) =  -357.146335945     A.U. after   21 cycles
 SCF Done:  E(UB3LYP) =  -357.153882523     A.U. after   20 cycles
 SCF Done:  E(UB3LYP) =  -357.155926319     A.U. after   22 cycles
 SCF Done:  E(UB3LYP) =  -357.159742756     A.U. after   20 cycles
 SCF Done:  E(UB3LYP) =  -357.161474284     A.U. after   17 cycles
 SCF Done:  E(UB3LYP) =  -357.162805375     A.U. after   18 cycles
 SCF Done:  E(UB3LYP) =  -357.163232376     A.U. after   17 cycles
 SCF Done:  E(UB3LYP) =  -357.163772519     A.U. after   19 cycles
 SCF Done:  E(UB3LYP) =  -357.164536329     A.U. after   19 cycles
 SCF Done:  E(UB3LYP) =  -357.165787054     A.U. after   19 cycles
 SCF Done:  E(UB3LYP) =  -357.166536571     A.U. after   19 cycles
 SCF Done:  E(UB3LYP) =  -357.166764736     A.U. after   19 cycles
 SCF Done:  E(UB3LYP) =  -357.166829044     A.U. after   20 cycles
 SCF Done:  E(UB3LYP) =  -357.166856844     A.U. after   14 cycles
 SCF Done:  E(UB3LYP) =  -357.166861485     A.U. after   13 cycles
 SCF Done:  E(UB3LYP) =  -357.166861855     A.U. after   12 cycles
 Optimization completed.
    -- Stationary point found.
 Normal termination of Gaussian 09 at Tue Mar 20 07:54:16 2018.

 ----------------------------------------------------------------------
 #P Geom=AllCheck Guess=TCheck SCRF=Check GenChk UB3LYP/Aug-CC-pVDZ Fre
 q
 ----------------------------------------------------------------------

 Pyridine-3-N2-UB3LYP-aug-cc-pVDZ-Duplet
 ---------------------------------------
 Redundant internal coordinates taken from checkpoint file:
 Pyridine-3-N2-UB3LYP-aug-cc-pVDZ-Duplet.chk
 Charge =  0 Multiplicity = 2

                         Standard orientation:
 ---------------------------------------------------------------------
 Center     Atomic      Atomic             Coordinates (Angstroms)
 Number     Number       Type             X           Y           Z
 ---------------------------------------------------------------------
      1          6           0        0.064304   -1.098875   -0.000295
      2          6           0        0.572549    0.208204   -0.000198
      3          6           0       -0.303249    1.291414   -0.000246
      4          6           0       -1.672266    1.022091    0.000355
      5          1           0        0.746669   -1.951039   -0.000985
      6          7           0        2.000974    0.495239   -0.000799
      7          7           0        2.857017   -0.323365    0.001084
      8          1           0       -2.405084    1.828589    0.000503
      9          1           0        0.089096    2.308271   -0.000389
     10          7           0       -1.244999   -1.356491   -0.000250
     11          6           0       -2.089346   -0.312209    0.000388
     12          1           0       -3.153581   -0.557252    0.000609
 ---------------------------------------------------------------------

 SCF Done:  E(UB3LYP) =  -357.166861855     A.U. after    1 cycles

 The electronic state is 2-A.
 Alpha  occ. eigenvalues --  -14.42943 -14.40716 -14.35973 -10.26458 -10.25361
 Alpha  occ. eigenvalues --  -10.25122 -10.23851 -10.22774  -1.08333  -0.97405
 Alpha  occ. eigenvalues --   -0.85084  -0.80334  -0.70868  -0.66434  -0.61149
 Alpha  occ. eigenvalues --   -0.54496  -0.52329  -0.47913  -0.47092  -0.46217
 Alpha  occ. eigenvalues --   -0.43782  -0.42806  -0.41505  -0.39773  -0.31918
 Alpha  occ. eigenvalues --   -0.29241  -0.29172  -0.21574
 Alpha virt. eigenvalues --   -0.09132  -0.06078  -0.01499  -0.00879   0.00684
 Alpha virt. eigenvalues --    0.01048   0.02815   0.03721   0.03927   0.04893
 Alpha virt. eigenvalues --    0.07224   0.07602   0.07895   0.08024   0.08302

  Beta  occ. eigenvalues --  -14.42572 -14.39180 -14.35938 -10.26084 -10.25360
  Beta  occ. eigenvalues --  -10.25140 -10.23882 -10.22761  -1.06561  -0.97304
  Beta  occ. eigenvalues --   -0.84571  -0.79960  -0.69785  -0.66297  -0.60301
  Beta  occ. eigenvalues --   -0.54237  -0.51881  -0.47062  -0.45692  -0.44307
  Beta  occ. eigenvalues --   -0.43613  -0.41210  -0.40773  -0.37921  -0.31839
  Beta  occ. eigenvalues --   -0.28970  -0.28651
  Beta virt. eigenvalues --   -0.08296  -0.07817  -0.06127  -0.01428  -0.00334
  Beta virt. eigenvalues --    0.00700   0.01145   0.02854   0.03734   0.03965
  Beta virt. eigenvalues --    0.04971   0.07306   0.07571   0.07969   0.08086

 Mulliken atomic charges:
              1
     1  C    0.499648
     2  C    0.761372
     3  C    0.901347
     4  C    1.097996
     5  H   -0.655912
     6  N    0.060830
     7  N   -0.576829
     8  H   -0.668492
     9  H   -0.724456
    10  N   -0.201302
    11  C    0.135491
    12  H   -0.629694
 Sum of Mulliken atomic charges =   0.00000

 Dipole moment (field-independent basis, Debye):
    X=             -2.4960    Y=              2.0813    Z=             -0.0004  Tot=              3.2499
 Quadrupole moment (field-independent basis, Debye-Ang):
   XX=            -50.3172   YY=            -45.6707   ZZ=            -46.9831
   XY=             -3.7917   XZ=             -0.0050   YZ=              0.0037

  Exact polarizability: 113.199  -4.507  82.471   0.002  -0.005  45.893
 Approx polarizability: 181.798 -10.963 142.943   0.010  -0.016  70.769

                     1                      2                      3
                     A                      A                      A
 Frequencies --    66.4177               228.4540               236.0858
 Red. masses --     8.3558                 5.2600                 7.3586
 Frc consts  --     0.0217                 0.1617                 0.2416
 IR Inten    --     0.2045                 0.5963                 2.1868

                     4                      5                      6
                     A                      A                      A
 Frequencies --   411.6755               453.5083               461.3009
 Red. masses --     3.0172                 7.9383                 4.2220
 Frc consts  --     0.3013                 0.9619                 0.5293
 IR Inten    --     2.2806                 3.6539                 0.3841

                     7                      8                      9
                     A                      A                      A
 Frequencies --   586.6267               628.8551               716.8179
 Red. masses --     8.7873                 8.2982                 2.1861
 Frc consts  --     1.7817                 1.9335                 0.6618
 IR Inten    --    20.7534                 9.9335                29.8519

                    10                     11                     12
                     A                      A                      A
 Frequencies --   776.8321               814.9087               950.1378
 Red. masses --     7.9630                 1.4895                 1.3593
 Frc consts  --     2.8313                 0.5828                 0.7230
 IR Inten    --     4.3278                27.9012                 0.6540

                    13                     14                     15
                     A                      A                      A
 Frequencies --   978.0773              1005.1230              1031.0807
 Red. masses --     1.3953                 1.4446                 4.1342
 Frc consts  --     0.7865                 0.8599                 2.5896
 IR Inten    --     2.0985                 0.0081                10.4112

                    16                     17                     18
                     A                      A                      A
 Frequencies --  1056.4029              1108.8111              1133.5375
 Red. masses --     3.0750                 2.0264                 1.7451
 Frc consts  --     2.0219                 1.4679                 1.3211
 IR Inten    --     0.2383                 6.0994                 4.0643

                    19                     20                     21
                     A                      A                      A
 Frequencies --  1213.4581              1304.4226              1342.6391
 Red. masses --     1.3999                 6.3316                 1.3518
 Frc consts  --     1.2145                 6.3474                 1.4357
 IR Inten    --     6.9676                 2.9173                 0.9498

                    22                     23                     24
                     A                      A                      A
 Frequencies --  1443.7722              1490.9473              1607.8456
 Red. masses --     2.2990                 2.1345                 5.8926
 Frc consts  --     2.8235                 2.7955                 8.9753
 IR Inten    --    13.2279                 5.8167                36.6434

                    25                     26                     27
                     A                      A                      A
 Frequencies --  1624.5869              1849.3140              3169.8650
 Red. masses --     6.5420                13.7441                 1.0891
 Frc consts  --    10.1730                27.6942                 6.4477
 IR Inten    --     2.8499                15.4915                 9.7776

                    28                     29                     30
                     A                      A                      A
 Frequencies --  3178.2423              3194.6751              3208.0205
 Red. masses --     1.0922                 1.0906                 1.0980
 Frc consts  --     6.5001                 6.5581                 6.6580
 IR Inten    --     0.9713                 4.1526                 6.6811

 - Thermochemistry -
 -------------------
 Temperature   298.150 Kelvin.  Pressure   1.00000 Atm.
 Atom     1 has atomic number  6 and mass  12.00000

 Molecular mass:   106.04052 amu.
 Principal axes and moments of inertia in atomic units:
                           1         2         3
     Eigenvalues --   329.194791069.144501398.33905
           X            0.99982  -0.01901  -0.00001
           Y            0.01901   0.99982   0.00002
           Z            0.00001  -0.00002   1.00000
 This molecule is an asymmetric top.
 Rotational symmetry number  1.
 Rotational temperatures (Kelvin)      0.26311     0.08101     0.06194
 Rotational constants (GHZ):           5.48229     1.68802     1.29063
 Zero-point vibrational energy     222938.7 (Joules/Mol)
                                   53.28363 (Kcal/Mol)
 Warning -- explicit consideration of   7 degrees of freedom as
           vibrations may cause significant error
 Vibrational temperatures:     95.56   328.69   339.67   592.31   652.50
          (Kelvin)            663.71   844.02   904.78  1031.34  1117.69
                             1172.47  1367.03  1407.23  1446.15  1483.49
                             1519.93  1595.33  1630.91  1745.89  1876.77
                             1931.76  2077.26  2145.14  2313.33  2337.42
                             2660.75  4560.72  4572.78  4596.42  4615.62

 Zero-point correction=                           0.084913 (Hartree/Particle)
 Thermal correction to Energy=                    0.091245
 Thermal correction to Enthalpy=                  0.092189
 Thermal correction to Gibbs Free Energy=         0.053368
 Sum of electronic and zero-point Energies=           -357.081949
 Sum of electronic and thermal Energies=              -357.075617
 Sum of electronic and thermal Enthalpies=            -357.074672
 Sum of electronic and thermal Free Energies=         -357.113493

                     E (Thermal)             CV                S
                      KCal/Mol        Cal/Mol-Kelvin    Cal/Mol-Kelvin
 Total                   57.257             22.951             81.705
 Electronic               0.000              0.000              1.377
 Translational            0.889              2.981             39.893
 Rotational               0.889              2.981             27.689
 Vibrational             55.480             16.990             12.746
 Vibration     1          0.598              1.970              4.257
 Vibration     2          0.651              1.798              1.891
 Vibration     3          0.655              1.786              1.832
 Vibration     4          0.776              1.445              0.921
 Vibration     5          0.812              1.353              0.785
 Vibration     6          0.819              1.336              0.762
 Vibration     7          0.944              1.060              0.473

 Normal termination of Gaussian 09 at Tue Mar 20 08:01:15 2018.
