 Gaussian 09, Revision B.01,
 Gaussian 09:  EM64L-G09RevB.01 12-Aug-2010

 -------------------------------------------------
 #p Temperature=298.15 opt freq UB3LYP/aug-cc-pVDZ
 -------------------------------------------------

 --------------------------------------
 Pyridine-2+-UB3LYP-aug-cc-pVDZ-Triplet
 --------------------------------------
 Symbolic Z-matrix:
 Charge =  1 Multiplicity = 3

 SCF Done:  E(UB3LYP) =  -247.263262058     A.U. after   22 cycles
 SCF Done:  E(UB3LYP) =  -247.280941956     A.U. after   19 cycles
 SCF Done:  E(UB3LYP) =  -247.282529546     A.U. after   17 cycles
 SCF Done:  E(UB3LYP) =  -247.282689904     A.U. after   15 cycles
 SCF Done:  E(UB3LYP) =  -247.282711029     A.U. after   14 cycles
 SCF Done:  E(UB3LYP) =  -247.282713284     A.U. after   12 cycles
 Optimization completed.
    -- Stationary point found.
 Normal termination of Gaussian 09 at Fri Jan 21 09:05:42 2005.

 ----------------------------------------------------------------------
 #P Geom=AllCheck Guess=TCheck SCRF=Check GenChk UB3LYP/Aug-CC-pVDZ Fre
 q
 ----------------------------------------------------------------------

 Pyridine-2+-UB3LYP-aug-cc-pVDZ-Triplet
 --------------------------------------
 Redundant internal coordinates taken from checkpoint file:
 Pyridine-2+-UB3LYP-aug-cc-pVDZ-Triplet.chk
 Charge =  1 Multiplicity = 3

                         Standard orientation:
 ---------------------------------------------------------------------
 Center     Atomic      Atomic             Coordinates (Angstroms)
 Number     Number       Type             X           Y           Z
 ---------------------------------------------------------------------
      1          6           0       -0.077530   -1.384343   -0.000257
      2          6           0        1.222931   -0.739934    0.000210
      3          6           0        1.216507    0.658160    0.000408
      4          1           0        2.150807    1.221123    0.000678
      5          1           0        2.139601   -1.331008   -0.000496
      6          6           0       -0.016307    1.310306   -0.000434
      7          1           0       -0.083761    2.399627   -0.001263
      8          6           0       -1.250284    0.534743   -0.000352
      9          1           0       -2.222580    1.033849    0.003373
     10          7           0       -1.222282   -0.799598    0.000038
 ---------------------------------------------------------------------

 SCF Done:  E(UB3LYP) =  -247.282713284     A.U. after    1 cycles

 The electronic state is 3-A.
 Alpha  occ. eigenvalues --  -14.58864 -10.51240 -10.50526 -10.48364 -10.47667
 Alpha  occ. eigenvalues --  -10.45026  -1.21758  -1.06433  -1.01877  -0.89319
 Alpha  occ. eigenvalues --   -0.86698  -0.76239  -0.73804  -0.70620  -0.66350
 Alpha  occ. eigenvalues --   -0.65405  -0.64355  -0.55670  -0.54644  -0.53116
 Alpha  occ. eigenvalues --   -0.45914
 Alpha virt. eigenvalues --   -0.29704  -0.26974  -0.15841  -0.12982  -0.12529
 Alpha virt. eigenvalues --   -0.12155  -0.11440  -0.10304  -0.09742  -0.08370
 Alpha virt. eigenvalues --   -0.06539  -0.05769  -0.05639  -0.04329  -0.03649

  Beta  occ. eigenvalues --  -14.58638 -10.50612 -10.48663 -10.47700 -10.47228
  Beta  occ. eigenvalues --  -10.45152  -1.20526  -1.05526  -0.99055  -0.87833
  Beta  occ. eigenvalues --   -0.84907  -0.75229  -0.72649  -0.69520  -0.64487
  Beta  occ. eigenvalues --   -0.63428  -0.63316  -0.53654  -0.52134
  Beta virt. eigenvalues --   -0.43075  -0.30672  -0.25992  -0.23913  -0.15725
  Beta virt. eigenvalues --   -0.12838  -0.11867  -0.11118  -0.10289  -0.09496
  Beta virt. eigenvalues --   -0.09306  -0.08070  -0.06095  -0.05463  -0.05263

 Mulliken atomic charges:
              1
     1  C   -0.427505
     2  C    1.106407
     3  C    0.835104
     4  H   -0.541954
     5  H   -0.489007
     6  C    1.351730
     7  H   -0.573281
     8  C    0.217173
     9  H   -0.449068
    10  N   -0.029599
 Sum of Mulliken atomic charges =   1.00000

 Dipole moment (field-independent basis, Debye):
    X=              1.7770    Y=              2.4775    Z=             -0.0002  Tot=              3.0488
 Quadrupole moment (field-independent basis, Debye-Ang):
   XX=            -21.2573   YY=            -23.3475   ZZ=            -32.7217
   XY=             -4.6771   XZ=             -0.0036   YZ=              0.0026

  Exact polarizability:  66.428  -5.458  66.039   0.007   0.002  32.222
 Approx polarizability: 110.749 -16.246 118.026   0.016  -0.002  49.064

                     1                      2                      3
                     A                      A                      A
 Frequencies --   223.3777               323.6665               423.2429
 Red. masses --     2.0819                 3.0898                 2.2843
 Frc consts  --     0.0612                 0.1907                 0.2411
 IR Inten    --     3.7747                 7.2627                 0.7193

                     4                      5                      6
                     A                      A                      A
 Frequencies --   548.9717               578.4524               715.7270
 Red. masses --     8.7255                 7.8662                 1.1822
 Frc consts  --     1.5493                 1.5508                 0.3568
 IR Inten    --     9.5747                 5.4864                27.6405

                     7                      8                      9
                     A                      A                      A
 Frequencies --   812.1140               930.0226               965.3046
 Red. masses --     1.9969                 5.7409                 3.0920
 Frc consts  --     0.7760                 2.9256                 1.6975
 IR Inten    --    10.0448                 9.8291                55.5535

                    10                     11                     12
                     A                      A                      A
 Frequencies --   985.7810               993.2579              1014.1627
 Red. masses --     1.5453                 6.1263                 1.5140
 Frc consts  --     0.8847                 3.5610                 0.9175
 IR Inten    --     0.2434                 1.0855                 0.7213

                    13                     14                     15
                     A                      A                      A
 Frequencies --  1094.3638              1155.4483              1275.8604
 Red. masses --     1.5143                 1.2034                 1.7491
 Frc consts  --     1.0685                 0.9466                 1.6775
 IR Inten    --    10.8930                 1.4874                23.8912

                    16                     17                     18
                     A                      A                      A
 Frequencies --  1366.3021              1394.5056              1438.6270
 Red. masses --     1.8908                 2.3495                 2.9272
 Frc consts  --     2.0796                 2.6919                 3.5694
 IR Inten    --     3.8273                38.0224                91.7976

                    19                     20                     21
                     A                      A                      A
 Frequencies --  1505.2850              1547.0979              3194.1264
 Red. masses --     2.7244                 6.2892                 1.0939
 Frc consts  --     3.6372                 8.8691                 6.5758
 IR Inten    --    28.4888                57.2403                 5.7032

                    22                     23                     24
                     A                      A                      A
 Frequencies --  3203.1900              3213.1029              3220.6172
 Red. masses --     1.0909                 1.0957                 1.0983
 Frc consts  --     6.5950                 6.6648                 6.7118
 IR Inten    --     5.3744                19.5351                17.3271

 - Thermochemistry -
 -------------------
 Temperature   298.150 Kelvin.  Pressure   1.00000 Atm.
 Atom     1 has atomic number  6 and mass  12.00000

 Molecular mass:    78.03437 amu.
 Principal axes and moments of inertia in atomic units:
                           1         2         3
     Eigenvalues --   275.79410 322.18955 597.98351
           X            0.97856  -0.20597  -0.00008
           Y            0.20597   0.97856   0.00003
           Z            0.00007  -0.00004   1.00000
 This molecule is an asymmetric top.
 Rotational symmetry number  1.
 Rotational temperatures (Kelvin)      0.31405     0.26883     0.14484
 Rotational constants (GHZ):           6.54380     5.60149     3.01805
 Zero-point vibrational energy     192135.9 (Joules/Mol)
                                   45.92157 (Kcal/Mol)
 Warning -- explicit consideration of   5 degrees of freedom as
           vibrations may cause significant error
 Vibrational temperatures:    321.39   465.68   608.95   789.85   832.26
          (Kelvin)           1029.77  1168.45  1338.09  1388.86  1418.32
                             1429.07  1459.15  1574.54  1662.43  1835.68
                             1965.80  2006.38  2069.86  2165.77  2225.93
                             4595.63  4608.67  4622.93  4633.74

 Zero-point correction=                           0.073181 (Hartree/Particle)
 Thermal correction to Energy=                    0.078052
 Thermal correction to Enthalpy=                  0.078996
 Thermal correction to Gibbs Free Energy=         0.044313
 Sum of electronic and zero-point Energies=           -247.209533
 Sum of electronic and thermal Energies=              -247.204661
 Sum of electronic and thermal Enthalpies=            -247.203717
 Sum of electronic and thermal Free Energies=         -247.238401

                     E (Thermal)             CV                S
                      KCal/Mol        Cal/Mol-Kelvin    Cal/Mol-Kelvin
 Total                   48.978             17.619             72.998
 Electronic               0.000              0.000              2.183
 Translational            0.889              2.981             38.979
 Rotational               0.889              2.981             25.477
 Vibrational             47.201             11.658              6.358
 Vibration     1          0.649              1.805              1.932
 Vibration     2          0.708              1.628              1.292
 Vibration     3          0.785              1.420              0.881
 Vibration     4          0.904              1.142              0.546
 Vibration     5          0.935              1.078              0.488

 Normal termination of Gaussian 09 at Fri Jan 21 09:08:07 2005.
