 Gaussian 09, Revision B.01,
 Gaussian 09:  EM64L-G09RevB.01 12-Aug-2010

 -------------------------------------------------
 #p Temperature=298.15 opt freq UB3LYP/aug-cc-pVDZ
 -------------------------------------------------

 ----------------------------------------
 Pyrimidine-4+-UB3LYP-aug-cc-pVDZ-Triplet
 ----------------------------------------
 Symbolic Z-matrix:
 Charge =  1 Multiplicity = 3

 SCF Done:  E(UB3LYP) =  -263.290549078     A.U. after   20 cycles
 SCF Done:  E(UB3LYP) =  -263.310264201     A.U. after   17 cycles
 SCF Done:  E(UB3LYP) =  -263.311731504     A.U. after   16 cycles
 SCF Done:  E(UB3LYP) =  -263.311771409     A.U. after   19 cycles
 SCF Done:  E(UB3LYP) =  -263.311775800     A.U. after   19 cycles
 Optimization completed.
    -- Stationary point found.
 Normal termination of Gaussian 09 at Fri Jan 21 11:47:48 2005.

 ----------------------------------------------------------------------
 #P Geom=AllCheck Guess=TCheck SCRF=Check GenChk UB3LYP/Aug-CC-pVDZ Fre
 q
 ----------------------------------------------------------------------

 Pyrimidine-4+-UB3LYP-aug-cc-pVDZ-Triplet
 ----------------------------------------
 Redundant internal coordinates taken from checkpoint file:
 Pyrimidine-4+-UB3LYP-aug-cc-pVDZ-Triplet.chk
 Charge =  1 Multiplicity = 3

                         Standard orientation:
 ---------------------------------------------------------------------
 Center     Atomic      Atomic             Coordinates (Angstroms)
 Number     Number       Type             X           Y           Z
 ---------------------------------------------------------------------
      1          6           0       -1.332184    0.411130   -0.000015
      2          6           0        0.175838   -1.307173    0.000003
      3          6           0        1.335144   -0.525485    0.000000
      4          6           0        1.051700    0.839229   -0.000008
      5          1           0       -2.332849    0.839063    0.000065
      6          1           0        1.787373    1.649645    0.000017
      7          1           0        2.344735   -0.934052    0.000021
      8          7           0       -0.236668    1.169371    0.000004
      9          7           0       -1.075080   -0.892351   -0.000001
 ---------------------------------------------------------------------

 SCF Done:  E(UB3LYP) =  -263.311775800     A.U. after    1 cycles

 The electronic state is 3-A.
 Alpha  occ. eigenvalues --  -14.68121 -14.62375 -10.53898 -10.50971 -10.50942
 Alpha  occ. eigenvalues --  -10.46263  -1.28952  -1.17360  -1.06488  -0.93779
 Alpha  occ. eigenvalues --   -0.90767  -0.79622  -0.78043  -0.72224  -0.70258
 Alpha  occ. eigenvalues --   -0.69078  -0.60935  -0.59083  -0.58427  -0.53964
 Alpha  occ. eigenvalues --   -0.47368
 Alpha virt. eigenvalues --   -0.29896  -0.28812  -0.15594  -0.13455  -0.12982
 Alpha virt. eigenvalues --   -0.12157  -0.11381  -0.10040  -0.09879  -0.08251
 Alpha virt. eigenvalues --   -0.06307  -0.05431  -0.05339  -0.04286  -0.03428

  Beta  occ. eigenvalues --  -14.66469 -14.61619 -10.53768 -10.50930 -10.49279
  Beta  occ. eigenvalues --  -10.46058  -1.26668  -1.14710  -1.05141  -0.92486
  Beta  occ. eigenvalues --   -0.88706  -0.77786  -0.75249  -0.71386  -0.69320
  Beta  occ. eigenvalues --   -0.67529  -0.57679  -0.54563  -0.53486
  Beta virt. eigenvalues --   -0.43495  -0.30631  -0.28729  -0.28024  -0.15480
  Beta virt. eigenvalues --   -0.12859  -0.12278  -0.11696  -0.11050  -0.09795
  Beta virt. eigenvalues --   -0.09543  -0.07898  -0.06247  -0.05252  -0.04972

 Mulliken atomic charges:
              1
     1  C    0.651711
     2  C   -0.280012
     3  C    1.367960
     4  C    0.434169
     5  H   -0.245382
     6  H   -0.387047
     7  H   -0.386934
     8  N   -0.025889
     9  N   -0.128575
 Sum of Mulliken atomic charges =   1.00000

 Dipole moment (field-independent basis, Debye):
    X=              1.2844    Y=              2.0140    Z=              0.0000  Tot=              2.3887
 Quadrupole moment (field-independent basis, Debye-Ang):
   XX=            -17.5797   YY=            -25.7940   ZZ=            -32.3551
   XY=             -2.0879   XZ=              0.0000   YZ=              0.0001

  Exact polarizability:  64.574   2.988  66.785   0.001  -0.001  30.191
 Approx polarizability: 116.676  13.953 142.179   0.000   0.000  44.741

                     1                      2                      3
                     A                      A                      A
 Frequencies --   316.3859               383.4682               541.7184
 Red. masses --     2.8372                 5.2356                 8.9849
 Frc consts  --     0.1673                 0.4536                 1.5535
 IR Inten    --     8.9455                 8.4568                88.5737

                     4                      5                      6
                     A                      A                      A
 Frequencies --   639.7127               641.8570               818.6363
 Red. masses --     4.8618                 8.1718                 1.2868
 Frc consts  --     1.1722                 1.9836                 0.5081
 IR Inten    --    26.3374                 3.8157                23.6030

                     7                      8                      9
                     A                      A                      A
 Frequencies --   930.2684               939.5279               969.6334
 Red. masses --     8.0103                 1.3648                 1.4015
 Frc consts  --     4.0843                 0.7098                 0.7763
 IR Inten    --    21.7936                 1.6201                 0.0193

                    10                     11                     12
                     A                      A                      A
 Frequencies --  1033.0061              1072.2857              1132.9198
 Red. masses --     2.1772                 5.8843                 1.3499
 Frc consts  --     1.3688                 3.9863                 1.0208
 IR Inten    --     7.4866                 3.1866                 0.3051

                    13                     14                     15
                     A                      A                      A
 Frequencies --  1234.0096              1277.0761              1392.6766
 Red. masses --     3.5914                 1.7216                 2.7492
 Frc consts  --     3.2222                 1.6543                 3.1417
 IR Inten    --    11.7965                 2.3290                32.8811

                    16                     17                     18
                     A                      A                      A
 Frequencies --  1405.5708              1506.3869              1607.2682
 Red. masses --     1.9495                 5.4981                 9.3425
 Frc consts  --     2.2692                 7.3508                14.2197
 IR Inten    --    67.5635                82.4845                63.3610

                    19                     20                     21
                     A                      A                      A
 Frequencies --  3163.3574              3230.4735              3241.7748
 Red. masses --     1.0911                 1.0976                 1.1010
 Frc consts  --     6.4327                 6.7485                 6.8174
 IR Inten    --    33.1540                28.8438                30.5460

 - Thermochemistry -
 -------------------
 Temperature   298.150 Kelvin.  Pressure   1.00000 Atm.
 Atom     1 has atomic number  6 and mass  12.00000

 Molecular mass:    79.02962 amu.
 Principal axes and moments of inertia in atomic units:
                           1         2         3
     Eigenvalues --   245.78375 312.74401 558.52776
           X            0.99809  -0.06181   0.00000
           Y            0.06181   0.99809   0.00000
           Z            0.00000   0.00000   1.00000
 This molecule is an asymmetric top.
 Rotational symmetry number  1.
 Rotational temperatures (Kelvin)      0.35240     0.27695     0.15508
 Rotational constants (GHZ):           7.34280     5.77067     3.23125
 Zero-point vibrational energy     164355.0 (Joules/Mol)
                                   39.28179 (Kcal/Mol)
 Warning -- explicit consideration of   3 degrees of freedom as
           vibrations may cause significant error
 Vibrational temperatures:    455.21   551.72   779.41   920.40   923.49
          (Kelvin)           1177.83  1338.45  1351.77  1395.08  1486.26
                             1542.78  1630.02  1775.46  1837.43  2003.75
                             2022.30  2167.35  2312.50  4551.36  4647.92
                             4664.19

 Zero-point correction=                           0.062600 (Hartree/Particle)
 Thermal correction to Energy=                    0.066972
 Thermal correction to Enthalpy=                  0.067916
 Thermal correction to Gibbs Free Energy=         0.034173
 Sum of electronic and zero-point Energies=           -263.249176
 Sum of electronic and thermal Energies=              -263.244804
 Sum of electronic and thermal Enthalpies=            -263.243860
 Sum of electronic and thermal Free Energies=         -263.277603

                     E (Thermal)             CV                S
                      KCal/Mol        Cal/Mol-Kelvin    Cal/Mol-Kelvin
 Total                   42.025             15.681             71.019
 Electronic               0.000              0.000              2.183
 Translational            0.889              2.981             39.017
 Rotational               0.889              2.981             25.266
 Vibrational             40.248              9.720              4.553
 Vibration     1          0.703              1.642              1.329
 Vibration     2          0.753              1.505              1.025
 Vibration     3          0.897              1.158              0.562

 Optimization completed.
    -- Stationary point found.
 Normal termination of Gaussian 09 at Fri Jan 21 11:49:44 2005.
