 Gaussian 09, Revision B.01,
 Gaussian 09:  EM64L-G09RevB.01 12-Aug-2010

 -------------------------------------------------
 #p Temperature=298.15 opt freq UB3LYP/aug-cc-pVDZ
 -------------------------------------------------

 ---------------------------------------
 Pyridine-2-N2-UB3LYP-aug-cc-pVDZ-Duplet
 ---------------------------------------
 Symbolic Z-matrix:
 Charge =  0 Multiplicity = 2

 SCF Done:  E(UB3LYP) =  -356.686664045     A.U. after   30 cycles
 SCF Done:  E(UB3LYP) =  -356.878735304     A.U. after   24 cycles
 SCF Done:  E(UB3LYP) =  -357.069272224     A.U. after   21 cycles
 SCF Done:  E(UB3LYP) =  -357.096002520     A.U. after   21 cycles
 SCF Done:  E(UB3LYP) =  -357.136703524     A.U. after   21 cycles
 SCF Done:  E(UB3LYP) =  -357.151076948     A.U. after   21 cycles
 SCF Done:  E(UB3LYP) =  -357.153632312     A.U. after   21 cycles
 SCF Done:  E(UB3LYP) =  -357.153246583     A.U. after   23 cycles
 SCF Done:  E(UB3LYP) =  -357.154032407     A.U. after   22 cycles
 SCF Done:  E(UB3LYP) =  -357.154641646     A.U. after   18 cycles
 SCF Done:  E(UB3LYP) =  -357.168595822     A.U. after   19 cycles
 SCF Done:  E(UB3LYP) =  -357.168820324     A.U. after   15 cycles
 SCF Done:  E(UB3LYP) =  -357.168935160     A.U. after   17 cycles
 SCF Done:  E(UB3LYP) =  -357.168975203     A.U. after   15 cycles
 SCF Done:  E(UB3LYP) =  -357.169002790     A.U. after   17 cycles
 SCF Done:  E(UB3LYP) =  -357.169018112     A.U. after   15 cycles
 SCF Done:  E(UB3LYP) =  -357.169019790     A.U. after   12 cycles
 SCF Done:  E(UB3LYP) =  -357.169020473     A.U. after   13 cycles
 SCF Done:  E(UB3LYP) =  -357.169020804     A.U. after   22 cycles
 Optimization completed.
    -- Stationary point found.
 Normal termination of Gaussian 09 at Tue Mar 20 07:13:02 2018.

 ----------------------------------------------------------------------
 #P Geom=AllCheck Guess=TCheck SCRF=Check GenChk UB3LYP/Aug-CC-pVDZ Fre
 q
 ----------------------------------------------------------------------

 Pyridine-2-N2-UB3LYP-aug-cc-pVDZ-Duplet
 ---------------------------------------
 Redundant internal coordinates taken from checkpoint file:
 Pyridine-2-N2-UB3LYP-aug-cc-pVDZ-Duplet.chk
 Charge =  0 Multiplicity = 2

                         Standard orientation:
 ---------------------------------------------------------------------
 Center     Atomic      Atomic             Coordinates (Angstroms)
 Number     Number       Type             X           Y           Z
 ---------------------------------------------------------------------
      1          6           0        0.551782   -0.208002    0.000021
      2          6           0        0.084148    1.110852   -0.000040
      3          6           0       -1.296261    1.299441    0.000036
      4          7           0        1.996596   -0.503743    0.000346
      5          7           0        2.838454    0.325745   -0.000292
      6          1           0       -1.715604    2.306256    0.000167
      7          1           0        0.787320    1.942348    0.000251
      8          6           0       -2.130404    0.176987   -0.000030
      9          1           0       -3.215287    0.279870    0.000107
     10          6           0       -1.544029   -1.091774   -0.000102
     11          1           0       -2.163297   -1.990893   -0.000136
     12          7           0       -0.218558   -1.288088   -0.000010
 ---------------------------------------------------------------------

 SCF Done:  E(UB3LYP) =  -357.169020804     A.U. after    1 cycles

 The electronic state is 2-A.
 Alpha  occ. eigenvalues --  -14.42217 -14.40362 -14.36097 -10.28784 -10.25103
 Alpha  occ. eigenvalues --  -10.23713 -10.23042 -10.22763  -1.08053  -0.98039
 Alpha  occ. eigenvalues --   -0.83769  -0.80868  -0.70786  -0.66469  -0.60875
 Alpha  occ. eigenvalues --   -0.53396  -0.52445  -0.48124  -0.47051  -0.46294
 Alpha  occ. eigenvalues --   -0.43712  -0.41836  -0.40896  -0.40102  -0.31955
 Alpha  occ. eigenvalues --   -0.29673  -0.29227  -0.21186
 Alpha virt. eigenvalues --   -0.08921  -0.05943  -0.01749  -0.00612   0.00187
 Alpha virt. eigenvalues --    0.01225   0.03159   0.03688   0.04018   0.05356
 Alpha virt. eigenvalues --    0.07157   0.07382   0.07555   0.07897   0.08378

  Beta  occ. eigenvalues --  -14.41822 -14.38864 -14.36131 -10.28382 -10.25086
  Beta  occ. eigenvalues --  -10.23701 -10.23034 -10.22782  -1.06340  -0.97844
  Beta  occ. eigenvalues --   -0.83734  -0.80195  -0.69643  -0.66303  -0.60076
  Beta  occ. eigenvalues --   -0.52988  -0.51921  -0.47488  -0.45828  -0.44827
  Beta  occ. eigenvalues --   -0.43082  -0.40471  -0.40183  -0.37517  -0.31992
  Beta  occ. eigenvalues --   -0.29514  -0.28976
  Beta virt. eigenvalues --   -0.08087  -0.07457  -0.05973  -0.01673  -0.00016
  Beta virt. eigenvalues --    0.00201   0.01281   0.03200   0.03731   0.04012
  Beta virt. eigenvalues --    0.05423   0.07170   0.07463   0.07572   0.07931

 Mulliken atomic charges:
              1
     1  C   -0.486761
     2  C    1.987277
     3  C    0.274658
     4  N    0.055582
     5  N   -0.552744
     6  H   -0.654194
     7  H   -0.776422
     8  C    1.552411
     9  H   -0.688545
    10  C   -0.012785
    11  H   -0.641303
    12  N   -0.057174
 Sum of Mulliken atomic charges =   0.00000

 Dipole moment (field-independent basis, Debye):
    X=             -4.0552    Y=              2.0742    Z=              0.0003  Tot=              4.5549
 Quadrupole moment (field-independent basis, Debye-Ang):
   XX=            -47.6749   YY=            -45.2773   ZZ=            -47.0306
   XY=              0.5793   XZ=              0.0003   YZ=              0.0024

  Exact polarizability: 111.430   3.989  82.488  -0.002  -0.002  46.054
 Approx polarizability: 175.972  11.627 143.477  -0.006  -0.006  70.886

                     1                      2                      3
                     A                      A                      A
 Frequencies --    34.8799               208.4341               252.7060
 Red. masses --     9.4301                 5.4058                 7.3293
 Frc consts  --     0.0068                 0.1384                 0.2758
 IR Inten    --     0.2061                 0.0055                 3.4988

                     4                      5                      6
                     A                      A                      A
 Frequencies --   420.5852               465.6207               490.0633
 Red. masses --     3.4629                 9.9264                 3.1579
 Frc consts  --     0.3609                 1.2680                 0.4468
 IR Inten    --     4.0502                 0.8198                 0.7779

                     7                      8                      9
                     A                      A                      A
 Frequencies --   581.4712               633.7449               748.6723
 Red. masses --     9.5084                 7.3750                 2.4979
 Frc consts  --     1.8941                 1.7452                 0.8249
 IR Inten    --    16.2355                 5.0572                 5.0996

                    10                     11                     12
                     A                      A                      A
 Frequencies --   761.8695               783.5085               909.3061
 Red. masses --     7.0885                 1.5877                 1.2980
 Frc consts  --     2.4242                 0.5743                 0.6323
 IR Inten    --     0.0216                56.4866                 0.2711

                    13                     14                     15
                     A                      A                      A
 Frequencies --   983.9978              1005.3584              1011.6129
 Red. masses --     1.4166                 7.0766                 1.3614
 Frc consts  --     0.8081                 4.2142                 0.8208
 IR Inten    --     0.7975                 6.4333                 0.0225

                    16                     17                     18
                     A                      A                      A
 Frequencies --  1061.2600              1096.1557              1138.6331
 Red. masses --     2.3067                 1.9495                 2.3981
 Frc consts  --     1.5307                 1.3801                 1.8319
 IR Inten    --     5.5926                 3.4626                 1.2500

                    19                     20                     21
                     A                      A                      A
 Frequencies --  1162.7808              1307.7274              1329.3429
 Red. masses --     1.1285                 1.9014                 3.3126
 Frc consts  --     0.8990                 1.9158                 3.4490
 IR Inten    --     0.8209                 0.1039                 2.7384

                    22                     23                     24
                     A                      A                      A
 Frequencies --  1444.0154              1485.7626              1611.6349
 Red. masses --     2.1812                 2.1728                 5.4815
 Frc consts  --     2.6798                 2.8259                 8.3885
 IR Inten    --    20.3072                12.7552                10.0399

                    25                     26                     27
                     A                      A                      A
 Frequencies --  1623.0395              1867.7417              3171.3931
 Red. masses --     6.7874                13.9525                 1.0895
 Frc consts  --    10.5345                28.6771                 6.4559
 IR Inten    --    33.8142                20.5307                 9.9537

                    28                     29                     30
                     A                      A                      A
 Frequencies --  3186.2560              3205.6765              3212.4598
 Red. masses --     1.0895                 1.0952                 1.0966
 Frc consts  --     6.5167                 6.6311                 6.6676
 IR Inten    --     6.3453                 7.2878                 3.4925

 - Thermochemistry -
 -------------------
 Temperature   298.150 Kelvin.  Pressure   1.00000 Atm.
 Atom     1 has atomic number  6 and mass  12.00000

 Molecular mass:   106.04052 amu.
 Principal axes and moments of inertia in atomic units:
                           1         2         3
     Eigenvalues --   327.519871052.191401379.71125
           X            0.99999   0.00405   0.00000
           Y           -0.00405   0.99999   0.00001
           Z            0.00000  -0.00001   1.00000
 This molecule is an asymmetric top.
 Rotational symmetry number  1.
 Rotational temperatures (Kelvin)      0.26445     0.08232     0.06278
 Rotational constants (GHZ):           5.51033     1.71522     1.30806
 Zero-point vibrational energy     222479.7 (Joules/Mol)
                                   53.17394 (Kcal/Mol)
 Warning -- explicit consideration of   7 degrees of freedom as
           vibrations may cause significant error
 Vibrational temperatures:     50.18   299.89   363.59   605.13   669.92
          (Kelvin)            705.09   836.61   911.82  1077.17  1096.16
                             1127.29  1308.29  1415.75  1446.48  1455.48
                             1526.91  1577.12  1638.24  1672.98  1881.53
                             1912.63  2077.61  2137.68  2318.78  2335.19
                             2687.26  4562.92  4584.31  4612.25  4622.01

 Zero-point correction=                           0.084738 (Hartree/Particle)
 Thermal correction to Energy=                    0.091118
 Thermal correction to Enthalpy=                  0.092062
 Thermal correction to Gibbs Free Energy=         0.052679
 Sum of electronic and zero-point Energies=           -357.084283
 Sum of electronic and thermal Energies=              -357.077903
 Sum of electronic and thermal Enthalpies=            -357.076959
 Sum of electronic and thermal Free Energies=         -357.116342

                     E (Thermal)             CV                S
                      KCal/Mol        Cal/Mol-Kelvin    Cal/Mol-Kelvin
 Total                   57.177             22.982             82.889
 Electronic               0.000              0.000              1.377
 Translational            0.889              2.981             39.893
 Rotational               0.889              2.981             27.655
 Vibrational             55.400             17.021             13.963
 Vibration     1          0.594              1.983              5.531
 Vibration     2          0.642              1.828              2.057
 Vibration     3          0.664              1.758              1.712
 Vibration     4          0.783              1.425              0.890
 Vibration     5          0.823              1.326              0.750
 Vibration     6          0.846              1.272              0.683
 Vibration     7          0.938              1.071              0.483

 Optimization completed.
    -- Stationary point found.
 Normal termination of Gaussian 09 at Tue Mar 20 07:19:58 2018.
