 Gaussian 09, Revision B.01,
 Gaussian 09:  EM64L-G09RevB.01 12-Aug-2010

 -------------------------------------------------
 #p Temperature=298.15 opt freq UB3LYP/aug-cc-pVDZ
 -------------------------------------------------

 ----------------------------------------
 Pyrimidine-2+-UB3LYP-aug-cc-pVDZ-Singlet
 ----------------------------------------
 Symbolic Z-matrix:
 Charge =  1 Multiplicity = 1

 SCF Done:  E(UB3LYP) =  -263.280458779     A.U. after   16 cycles
 SCF Done:  E(UB3LYP) =  -263.343800516     A.U. after   13 cycles
 SCF Done:  E(UB3LYP) =  -263.372958050     A.U. after   12 cycles
 SCF Done:  E(UB3LYP) =  -263.377950446     A.U. after   14 cycles
 SCF Done:  E(UB3LYP) =  -263.378680702     A.U. after   13 cycles
 SCF Done:  E(UB3LYP) =  -263.378726339     A.U. after   13 cycles
 SCF Done:  E(UB3LYP) =  -263.378737129     A.U. after   13 cycles
 SCF Done:  E(UB3LYP) =  -263.378739520     A.U. after   13 cycles
 Optimization completed.
    -- Stationary point found.
 Normal termination of Gaussian 09 at Tue Mar  6 10:25:23 2018.

 ----------------------------------------------------------------------
 #P Geom=AllCheck Guess=TCheck SCRF=Check GenChk UB3LYP/Aug-CC-pVDZ Fre
 q
 ----------------------------------------------------------------------

 Pyrimidine-2+-UB3LYP-aug-cc-pVDZ-Singlet
 ----------------------------------------
 Redundant internal coordinates taken from checkpoint file:
 Pyrimidine-2+-UB3LYP-aug-cc-pVDZ-Singlet.chk
 Charge =  1 Multiplicity = 1

                         Standard orientation:
 ---------------------------------------------------------------------
 Center     Atomic      Atomic             Coordinates (Angstroms)
 Number     Number       Type             X           Y           Z
 ---------------------------------------------------------------------
      1          6           0        0.000509   -1.132128   -0.000013
      2          6           0       -0.000494    1.253155   -0.000082
      3          1           0       -0.001026    2.343366   -0.000032
      4          6           0        1.216550    0.554934    0.000076
      5          1           0        2.203713    1.017741    0.000162
      6          7           0        1.195884   -0.839368   -0.000050
      7          6           0       -1.217190    0.553884    0.000002
      8          1           0       -2.204641    1.016075    0.000087
      9          7           0       -1.195070   -0.840097    0.000035
 ---------------------------------------------------------------------

 SCF Done:  E(UB3LYP) =  -263.378739520     A.U. after    1 cycles

 The electronic state is 1-A.
 Alpha  occ. eigenvalues --  -14.64037 -14.64036 -10.57853 -10.51961 -10.51958
 Alpha  occ. eigenvalues --  -10.45530  -1.30192  -1.21191  -1.04826  -0.93775
 Alpha  occ. eigenvalues --   -0.89219  -0.77702  -0.77583  -0.71981  -0.68421
 Alpha  occ. eigenvalues --   -0.67516  -0.63193  -0.58434  -0.56376  -0.54531
 Alpha virt. eigenvalues --   -0.34204  -0.31848  -0.26054  -0.16293  -0.12665
 Alpha virt. eigenvalues --   -0.12649  -0.12476  -0.10709  -0.10528  -0.09217
 Alpha virt. eigenvalues --   -0.08706  -0.06324  -0.05997  -0.05464  -0.04167

  Beta  occ. eigenvalues --  -14.64037 -14.64036 -10.57853 -10.51961 -10.51958
  Beta  occ. eigenvalues --  -10.45530  -1.30192  -1.21191  -1.04826  -0.93775
  Beta  occ. eigenvalues --   -0.89219  -0.77702  -0.77583  -0.71981  -0.68421
  Beta  occ. eigenvalues --   -0.67516  -0.63193  -0.58434  -0.56376  -0.54531
  Beta virt. eigenvalues --   -0.34204  -0.31848  -0.26054  -0.16293  -0.12665
  Beta virt. eigenvalues --   -0.12649  -0.12476  -0.10709  -0.10528  -0.09217
  Beta virt. eigenvalues --   -0.08706  -0.06324  -0.05997  -0.05464  -0.04167

 Mulliken atomic charges:
              1
     1  C   -0.123749
     2  C    1.473146
     3  H   -0.530434
     4  C    0.561578
     5  H   -0.445721
     6  N   -0.025606
     7  C    0.561690
     8  H   -0.445585
     9  N   -0.025319
 Sum of Mulliken atomic charges =   1.00000

 Dipole moment (field-independent basis, Debye):
    X=             -0.0019    Y=              2.1099    Z=              0.0002  Tot=              2.1099
 Quadrupole moment (field-independent basis, Debye-Ang):
   XX=            -23.2753   YY=            -22.1201   ZZ=            -32.1970
   XY=             -0.0011   XZ=              0.0003   YZ=              0.0003

  Exact polarizability:  61.512   0.000  52.772   0.000   0.000  28.771
 Approx polarizability: 127.755   0.005  93.329   0.000   0.000  43.323

                     1                      2                      3
                     A                      A                      A
 Frequencies --   416.6368               461.3670               469.9046
 Red. masses --     4.6471                 3.4753                 9.6501
 Frc consts  --     0.4753                 0.4358                 1.2555
 IR Inten    --     0.0000                 0.0713                32.5670

                     4                      5                      6
                     A                      A                      A
 Frequencies --   620.8874               739.4092               835.1518
 Red. masses --     4.3591                10.7782                 1.2047
 Frc consts  --     0.9901                 3.4719                 0.4950
 IR Inten    --    12.9641                 4.9168                51.9433

                     7                      8                      9
                     A                      A                      A
 Frequencies --   873.9009               968.6654               991.3154
 Red. masses --     7.5394                 1.3337                 1.5218
 Frc consts  --     3.3924                 0.7373                 0.8811
 IR Inten    --    10.1750                 0.0000                 0.0049

                    10                     11                     12
                     A                      A                      A
 Frequencies --  1008.4614              1043.4531              1134.6566
 Red. masses --     5.6700                 3.6172                 1.3450
 Frc consts  --     3.3974                 2.3204                 1.0203
 IR Inten    --     0.1871                 6.8927                 0.3973

                    13                     14                     15
                     A                      A                      A
 Frequencies --  1142.1477              1309.4521              1420.9226
 Red. masses --     2.3660                 1.1822                 2.8944
 Frc consts  --     1.8185                 1.1943                 3.4431
 IR Inten    --    42.8874                 2.4662                35.9820

                    16                     17                     18
                     A                      A                      A
 Frequencies --  1457.5878              1470.1333              1927.6353
 Red. masses --     4.0863                 3.4520                12.0128
 Frc consts  --     5.1151                 4.3958                26.2994
 IR Inten    --    49.5534               101.6983               213.9224

                    19                     20                     21
                     A                      A                      A
 Frequencies --  3216.2817              3226.8362              3230.9792
 Red. masses --     1.0918                 1.0963                 1.1009
 Frc consts  --     6.6543                 6.7255                 6.7712
 IR Inten    --    13.0412                41.6836                24.1234

 - Thermochemistry -
 -------------------
 Temperature   298.150 Kelvin.  Pressure   1.00000 Atm.
 Atom     1 has atomic number  6 and mass  12.00000

 Molecular mass:    79.02962 amu.
 Principal axes and moments of inertia in atomic units:
                           1         2         3
     Eigenvalues --   245.44029 304.81469 550.25498
           X            1.00000   0.00001   0.00000
           Y           -0.00001   1.00000   0.00000
           Z            0.00000   0.00000   1.00000
 This molecule is an asymmetric top.
 Rotational symmetry number  1.
 Rotational temperatures (Kelvin)      0.35289     0.28415     0.15741
 Rotational constants (GHZ):           7.35308     5.92078     3.27983
 Zero-point vibrational energy     167272.5 (Joules/Mol)
                                   39.97910 (Kcal/Mol)
 Warning -- explicit consideration of   3 degrees of freedom as
           vibrations may cause significant error
 Vibrational temperatures:    599.45   663.80   676.09   893.32  1063.84
          (Kelvin)           1201.60  1257.35  1393.69  1426.28  1450.95
                             1501.29  1632.52  1643.29  1884.01  2044.39
                             2097.14  2115.19  2773.43  4627.51  4642.69
                             4648.65

 Zero-point correction=                           0.063711 (Hartree/Particle)
 Thermal correction to Energy=                    0.067933
 Thermal correction to Enthalpy=                  0.068877
 Thermal correction to Gibbs Free Energy=         0.036469
 Sum of electronic and zero-point Energies=           -263.315029
 Sum of electronic and thermal Energies=              -263.310807
 Sum of electronic and thermal Enthalpies=            -263.309863
 Sum of electronic and thermal Free Energies=         -263.342270

                     E (Thermal)             CV                S
                      KCal/Mol        Cal/Mol-Kelvin    Cal/Mol-Kelvin
 Total                   42.628             15.348             68.208
 Electronic               0.000              0.000              0.000
 Translational            0.889              2.981             39.017
 Rotational               0.889              2.981             25.224
 Vibrational             40.851              9.386              3.967
 Vibration     1          0.780              1.434              0.903
 Vibration     2          0.819              1.336              0.762
 Vibration     3          0.827              1.317              0.738

 Optimization completed.
    -- Stationary point found.
 Normal termination of Gaussian 09 at Tue Mar  6 10:27:15 2018.
