 Gaussian 09, Revision B.01,
 Gaussian 09:  EM64L-G09RevB.01 12-Aug-2010

 -------------------------------------------------
 #p Temperature=298.15 opt freq UB3LYP/aug-cc-pVDZ
 -------------------------------------------------

 --------------------------------------
 Pyridine-2+-UB3LYP-aug-cc-pVDZ-Singlet
 --------------------------------------
 Symbolic Z-matrix:
 Charge =  1 Multiplicity = 1

 SCF Done:  E(UB3LYP) =  -247.281682704     A.U. after   17 cycles
 SCF Done:  E(UB3LYP) =  -247.331119035     A.U. after   14 cycles
 SCF Done:  E(UB3LYP) =  -247.345291396     A.U. after   14 cycles
 SCF Done:  E(UB3LYP) =  -247.347604649     A.U. after   14 cycles
 SCF Done:  E(UB3LYP) =  -247.347860947     A.U. after   11 cycles
 SCF Done:  E(UB3LYP) =  -247.347921857     A.U. after   16 cycles
 SCF Done:  E(UB3LYP) =  -247.347944289     A.U. after   11 cycles
 SCF Done:  E(UB3LYP) =  -247.347951469     A.U. after   16 cycles
 SCF Done:  E(UB3LYP) =  -247.347952546     A.U. after   16 cycles
 Optimization completed.
    -- Stationary point found.
 Normal termination of Gaussian 09 at Tue Mar  6 09:24:20 2018.

 ----------------------------------------------------------------------
 #P Geom=AllCheck Guess=TCheck SCRF=Check GenChk UB3LYP/Aug-CC-pVDZ Fre
 q
 ----------------------------------------------------------------------

 Pyridine-2+-UB3LYP-aug-cc-pVDZ-Singlet
 --------------------------------------
 Redundant internal coordinates taken from checkpoint file:
 Pyridine-2+-UB3LYP-aug-cc-pVDZ-Singlet.chk
 Charge =  1 Multiplicity = 1

                         Standard orientation:
 ---------------------------------------------------------------------
 Center     Atomic      Atomic             Coordinates (Angstroms)
 Number     Number       Type             X           Y           Z
 ---------------------------------------------------------------------
      1          6           0        0.379218   -1.166553   -0.000049
      2          6           0        1.472110   -0.360581    0.000129
      3          6           0        0.890701    0.941576   -0.000137
      4          1           0        1.591417    1.781319   -0.000257
      5          1           0        2.531553   -0.597469    0.000272
      6          6           0       -0.498921    1.176345    0.000049
      7          1           0       -0.876932    2.199122    0.000151
      8          6           0       -1.411914    0.118902    0.000043
      9          1           0       -2.496553    0.190805    0.000148
     10          7           0       -0.819521   -1.118844   -0.000076
 ---------------------------------------------------------------------

 SCF Done:  E(UB3LYP) =  -247.347952546     A.U. after    1 cycles

 The electronic state is 1-A.
 Alpha  occ. eigenvalues --  -14.62793 -10.53226 -10.48794 -10.47027 -10.45813
 Alpha  occ. eigenvalues --  -10.43282  -1.25152  -1.06377  -1.01600  -0.89916
 Alpha  occ. eigenvalues --   -0.85020  -0.76689  -0.72652  -0.70987  -0.67852
 Alpha  occ. eigenvalues --   -0.63340  -0.63216  -0.58086  -0.53433  -0.51095
 Alpha virt. eigenvalues --   -0.34369  -0.27898  -0.24197  -0.15361  -0.12439
 Alpha virt. eigenvalues --   -0.11775  -0.10677  -0.10184  -0.09889  -0.09800
 Alpha virt. eigenvalues --   -0.08526  -0.05947  -0.05585  -0.05567  -0.04626

  Beta  occ. eigenvalues --  -14.62793 -10.53226 -10.48794 -10.47027 -10.45813
  Beta  occ. eigenvalues --  -10.43282  -1.25152  -1.06377  -1.01600  -0.89916
  Beta  occ. eigenvalues --   -0.85020  -0.76689  -0.72652  -0.70987  -0.67852
  Beta  occ. eigenvalues --   -0.63340  -0.63216  -0.58086  -0.53433  -0.51095
  Beta virt. eigenvalues --   -0.34369  -0.27898  -0.24197  -0.15361  -0.12439
  Beta virt. eigenvalues --   -0.11775  -0.10677  -0.10184  -0.09889  -0.09800
  Beta virt. eigenvalues --   -0.08526  -0.05947  -0.05585  -0.05567  -0.04626

 Mulliken atomic charges:
              1
     1  C   -0.501466
     2  C    1.328595
     3  C    0.632739
     4  H   -0.591918
     5  H   -0.483075
     6  C    1.470897
     7  H   -0.592499
     8  C    0.137055
     9  H   -0.478593
    10  N    0.078265
 Sum of Mulliken atomic charges =   1.00000

 Dipole moment (field-independent basis, Debye):
    X=              1.1101    Y=              0.7395    Z=              0.0002  Tot=              1.3338
 Quadrupole moment (field-independent basis, Debye-Ang):
   XX=            -17.3605   YY=            -23.1579   ZZ=            -33.9733
   XY=             -2.0865   XZ=             -0.0001   YZ=             -0.0003

  Exact polarizability:  69.378  -0.643  59.184   0.000   0.000  31.925
 Approx polarizability: 135.177   2.244 111.416   0.001   0.000  47.735

                     1                      2                      3
                     A                      A                      A
 Frequencies --   397.5968               459.8321               514.1401
 Red. masses --     2.9487                 7.4899                 9.8597
 Frc consts  --     0.2746                 0.9331                 1.5356
 IR Inten    --     8.3963                 1.3434                34.1883

                     4                      5                      6
                     A                      A                      A
 Frequencies --   565.5456               639.1725               738.4627
 Red. masses --     2.8112                 7.9959                 1.2763
 Frc consts  --     0.5298                 1.9247                 0.4101
 IR Inten    --     9.5614                15.0293                75.1025

                     7                      8                      9
                     A                      A                      A
 Frequencies --   836.6014               863.4683               947.2261
 Red. masses --     6.1189                 1.2042                 1.3331
 Frc consts  --     2.5233                 0.5290                 0.7047
 IR Inten    --    31.2233                12.2410                 0.5952

                    10                     11                     12
                     A                      A                      A
 Frequencies --   985.0363               986.4743              1038.3462
 Red. masses --     2.0230                 1.4331                 6.2033
 Frc consts  --     1.1565                 0.8217                 3.9406
 IR Inten    --     9.1953                 0.0510                 8.2201

                    13                     14                     15
                     A                      A                      A
 Frequencies --  1116.5484              1151.3486              1207.0651
 Red. masses --     1.4911                 1.1122                 2.1145
 Frc consts  --     1.0953                 0.8686                 1.8152
 IR Inten    --     2.6521                 3.7119                11.5621

                    16                     17                     18
                     A                      A                      A
 Frequencies --  1309.9147              1372.4686              1455.7338
 Red. masses --     1.4192                 4.5867                 2.5387
 Frc consts  --     1.4348                 5.0904                 3.1698
 IR Inten    --    16.7536                35.2303                17.1394

                    19                     20                     21
                     A                      A                      A
 Frequencies --  1478.7458              2042.9534              3178.5390
 Red. masses --     3.4204                11.1663                 1.0906
 Frc consts  --     4.4067                27.4586                 6.4922
 IR Inten    --    34.8904                55.0040                27.2528

                    22                     23                     24
                     A                      A                      A
 Frequencies --  3214.3115              3259.6757              3267.7786
 Red. masses --     1.0938                 1.0992                 1.1011
 Frc consts  --     6.6582                 6.8816                 6.9279
 IR Inten    --    27.1564                18.0002                59.6134

 - Thermochemistry -
 -------------------
 Temperature   298.150 Kelvin.  Pressure   1.00000 Atm.
 Atom     1 has atomic number  6 and mass  12.00000

 Molecular mass:    78.03437 amu.
 Principal axes and moments of inertia in atomic units:
                           1         2         3
     Eigenvalues --   253.83750 320.26850 574.10599
           X            0.99842  -0.05615   0.00000
           Y            0.05615   0.99842   0.00000
           Z            0.00000   0.00000   1.00000
 This molecule is an asymmetric top.
 Rotational symmetry number  1.
 Rotational temperatures (Kelvin)      0.34122     0.27044     0.15087
 Rotational constants (GHZ):           7.10983     5.63509     3.14357
 Zero-point vibrational energy     197545.2 (Joules/Mol)
                                   47.21445 (Kcal/Mol)
 Warning -- explicit consideration of   4 degrees of freedom as
           vibrations may cause significant error
 Vibrational temperatures:    572.05   661.59   739.73   813.69   919.63
          (Kelvin)           1062.48  1203.68  1242.34  1362.85  1417.25
                             1419.31  1493.95  1606.46  1656.53  1736.70
                             1884.67  1974.67  2094.47  2127.58  2939.35
                             4573.20  4624.67  4689.94  4701.60

 Zero-point correction=                           0.075241 (Hartree/Particle)
 Thermal correction to Energy=                    0.079648
 Thermal correction to Enthalpy=                  0.080593
 Thermal correction to Gibbs Free Energy=         0.047898
 Sum of electronic and zero-point Energies=           -247.272712
 Sum of electronic and thermal Energies=              -247.268304
 Sum of electronic and thermal Enthalpies=            -247.267360
 Sum of electronic and thermal Free Energies=         -247.300054

                     E (Thermal)             CV                S
                      KCal/Mol        Cal/Mol-Kelvin    Cal/Mol-Kelvin
 Total                   49.980             16.657             68.811
 Electronic               0.000              0.000              0.000
 Translational            0.889              2.981             38.979
 Rotational               0.889              2.981             25.349
 Vibrational             48.203             10.696              4.484
 Vibration     1          0.764              1.475              0.972
 Vibration     2          0.818              1.339              0.767
 Vibration     3          0.869              1.219              0.624
 Vibration     4          0.921              1.106              0.513

 Optimization completed.
    -- Stationary point found.
 Normal termination of Gaussian 09 at Tue Mar  6 09:26:41 2018.
