 Gaussian 09, Revision B.01,
 Gaussian 09:  EM64L-G09RevB.01 12-Aug-2010

 -------------------------------------------------
 #p Temperature=298.15 opt freq UB3LYP/aug-cc-pVDZ
 -------------------------------------------------

 --------------------------------------
 Pyrimidine-2-UB3LYP-aug-cc-pVDZ-Duplet
 --------------------------------------
 Symbolic Z-matrix:
 Charge =  0 Multiplicity = 2

 SCF Done:  E(UB3LYP) =  -263.649194225     A.U. after   17 cycles
 SCF Done:  E(UB3LYP) =  -263.674114275     A.U. after   16 cycles
 SCF Done:  E(UB3LYP) =  -263.675255384     A.U. after   17 cycles
 SCF Done:  E(UB3LYP) =  -263.675336526     A.U. after   14 cycles
 SCF Done:  E(UB3LYP) =  -263.675339487     A.U. after   17 cycles
 SCF Done:  E(UB3LYP) =  -263.675340618     A.U. after   10 cycles
 Optimization completed.
    -- Stationary point found.
 Normal termination of Gaussian 09 at Tue Mar  6 16:09:41 2018.

 ----------------------------------------------------------------------
 #P Geom=AllCheck Guess=TCheck SCRF=Check GenChk UB3LYP/Aug-CC-pVDZ Fre
 q
 ----------------------------------------------------------------------

 Pyrimidine-2-UB3LYP-aug-cc-pVDZ-Duplet
 --------------------------------------
 Redundant internal coordinates taken from checkpoint file:
 Pyrimidine-2-UB3LYP-aug-cc-pVDZ-Duplet.chk
 Charge =  0 Multiplicity = 2

                         Standard orientation:
 ---------------------------------------------------------------------
 Center     Atomic      Atomic             Coordinates (Angstroms)
 Number     Number       Type             X           Y           Z
 ---------------------------------------------------------------------
      1          6           0        0.000188   -1.327659   -0.000060
      2          6           0       -0.000313    1.288083   -0.000198
      3          1           0       -0.000432    2.377318   -0.000068
      4          6           0       -1.193413    0.562541    0.000102
      5          1           0       -2.167167    1.057063    0.000197
      6          7           0       -1.192983   -0.786468    0.000000
      7          6           0        1.193240    0.562821    0.000114
      8          1           0        2.166749    1.057884    0.000200
      9          7           0        1.193359   -0.785958   -0.000012
 ---------------------------------------------------------------------

 SCF Done:  E(UB3LYP) =  -263.675340618     A.U. after    1 cycles

 The electronic state is 2-A.
 Alpha  occ. eigenvalues --  -14.36776 -14.36775 -10.27738 -10.26796 -10.26795
 Alpha  occ. eigenvalues --  -10.22733  -1.01782  -0.92175  -0.81433  -0.68736
 Alpha  occ. eigenvalues --   -0.66582  -0.54320  -0.54007  -0.47070  -0.45178
 Alpha  occ. eigenvalues --   -0.44368  -0.38218  -0.34106  -0.31026  -0.28822
 Alpha  occ. eigenvalues --   -0.24100
 Alpha virt. eigenvalues --   -0.07349  -0.04732  -0.01583   0.00581   0.01822
 Alpha virt. eigenvalues --    0.03784   0.04343   0.05591   0.05861   0.07421
 Alpha virt. eigenvalues --    0.07854   0.08386   0.08635   0.08843   0.09772

  Beta  occ. eigenvalues --  -14.36514 -14.36513 -10.26644 -10.26642 -10.26224
  Beta  occ. eigenvalues --  -10.22781  -1.01023  -0.91624  -0.80871  -0.68101
  Beta  occ. eigenvalues --   -0.65343  -0.53514  -0.53292  -0.46457  -0.44660
  Beta  occ. eigenvalues --   -0.44052  -0.35929  -0.33982  -0.30494  -0.27868
  Beta virt. eigenvalues --   -0.08831  -0.07149  -0.03520  -0.01570   0.00599
  Beta virt. eigenvalues --    0.01904   0.03788   0.04734   0.05603   0.06171
  Beta virt. eigenvalues --    0.07528   0.07873   0.08405   0.08635   0.09010

 Mulliken atomic charges:
              1
     1  C   -0.271705
     2  C    1.369969
     3  H   -0.626608
     4  C    0.462370
     5  H   -0.522996
     6  N   -0.175169
     7  C    0.462294
     8  H   -0.522900
     9  N   -0.175255
 Sum of Mulliken atomic charges =   0.00000

 Dipole moment (field-independent basis, Debye):
    X=             -0.0007    Y=              3.6244    Z=              0.0003  Tot=              3.6244
 Quadrupole moment (field-independent basis, Debye-Ang):
   XX=            -35.2961   YY=            -34.3364   ZZ=            -35.3394
   XY=              0.0002   XZ=              0.0000   YZ=              0.0004

  Exact polarizability:  68.155   0.000  66.609   0.000   0.000  36.445
 Approx polarizability: 118.771   0.001 109.875   0.000  -0.001  54.496

                     1                      2                      3
                     A                      A                      A
 Frequencies --   377.5527               382.4554               584.9319
 Red. masses --     3.6929                 4.1205                 8.6518
 Frc consts  --     0.3102                 0.3551                 1.7441
 IR Inten    --     0.0738                 0.0000                23.2460

                     4                      5                      6
                     A                      A                      A
 Frequencies --   701.7681               732.1593               798.5614
 Red. masses --     8.4967                 4.5830                 1.2052
 Frc consts  --     2.4654                 1.4475                 0.4528
 IR Inten    --     0.4526                11.3782                24.7503

                     7                      8                      9
                     A                      A                      A
 Frequencies --   981.6585               992.0469               994.7226
 Red. masses --     9.6681                 1.3819                 1.4537
 Frc consts  --     5.4892                 0.8013                 0.8475
 IR Inten    --     2.0771                 0.0000                 0.0007

                    10                     11                     12
                     A                      A                      A
 Frequencies --  1069.5150              1096.6631              1154.4735
 Red. masses --     3.5488                 1.4601                 2.5742
 Frc consts  --     2.3917                 1.0346                 2.0214
 IR Inten    --     0.1256                 2.9444                 2.1137

                    13                     14                     15
                     A                      A                      A
 Frequencies --  1189.8777              1302.7610              1408.0183
 Red. masses --     4.0025                 1.7068                 2.5143
 Frc consts  --     3.3387                 1.7067                 2.9369
 IR Inten    --     2.2939                 9.6372                54.2631

                    16                     17                     18
                     A                      A                      A
 Frequencies --  1442.6452              1569.5118              1579.3395
 Red. masses --     2.1422                 4.5351                 7.2656
 Frc consts  --     2.6268                 6.5821                10.6776
 IR Inten    --     0.5612                44.5721               162.5510

                    19                     20                     21
                     A                      A                      A
 Frequencies --  3171.3595              3175.5623              3212.1609
 Red. masses --     1.0896                 1.0923                 1.0970
 Frc consts  --     6.4565                 6.4900                 6.6689
 IR Inten    --     7.8897                13.6637                 5.6537

 - Thermochemistry -
 -------------------
 Temperature   298.150 Kelvin.  Pressure   1.00000 Atm.
 Atom     1 has atomic number  6 and mass  12.00000

 Molecular mass:    79.02962 amu.
 Principal axes and moments of inertia in atomic units:
                           1         2         3
     Eigenvalues --   263.08070 298.22936 561.31005
           X            1.00000   0.00003   0.00000
           Y           -0.00003   1.00000   0.00000
           Z            0.00000   0.00000   1.00000
 This molecule is an asymmetric top.
 Rotational symmetry number  1.
 Rotational temperatures (Kelvin)      0.32923     0.29043     0.15431
 Rotational constants (GHZ):           6.86003     6.05152     3.21523
 Zero-point vibrational energy     166985.2 (Joules/Mol)
                                   39.91042 (Kcal/Mol)
 Warning -- explicit consideration of   3 degrees of freedom as
           vibrations may cause significant error
 Vibrational temperatures:    543.21   550.27   841.59  1009.69  1053.41
          (Kelvin)           1148.95  1412.39  1427.33  1431.18  1538.79
                             1577.85  1661.03  1711.97  1874.38  2025.82
                             2075.64  2258.17  2272.31  4562.87  4568.92
                             4621.58

 Zero-point correction=                           0.063601 (Hartree/Particle)
 Thermal correction to Energy=                    0.067790
 Thermal correction to Enthalpy=                  0.068734
 Thermal correction to Gibbs Free Energy=         0.035656
 Sum of electronic and zero-point Energies=           -263.611739
 Sum of electronic and thermal Energies=              -263.607551
 Sum of electronic and thermal Enthalpies=            -263.606607
 Sum of electronic and thermal Free Energies=         -263.639685

                     E (Thermal)             CV                S
                      KCal/Mol        Cal/Mol-Kelvin    Cal/Mol-Kelvin
 Total                   42.539             14.960             69.618
 Electronic               0.000              0.000              1.377
 Translational            0.889              2.981             39.017
 Rotational               0.889              2.981             25.291
 Vibrational             40.761              8.999              3.934
 Vibration     1          0.748              1.518              1.049
 Vibration     2          0.752              1.508              1.029
 Vibration     3          0.942              1.064              0.476

 Optimization completed.
    -- Stationary point found.
 Normal termination of Gaussian 09 at Tue Mar  6 16:11:38 2018.
