 Gaussian 09, Revision B.01,
 Gaussian 09:  EM64L-G09RevB.01 12-Aug-2010

 -------------------------------------------------
 #p Temperature=298.15 opt freq UB3LYP/aug-cc-pVDZ
 -------------------------------------------------

 --------------------------------------
 Pyrrole-2-N2-UB3LYP-aug-cc-pVDZ-Duplet
 --------------------------------------
 Symbolic Z-matrix:
 Charge =  0 Multiplicity = 2

 SCF Done:  E(UB3LYP) =  -319.010536281     A.U. after   33 cycles
 SCF Done:  E(UB3LYP) =  -319.022454608     A.U. after   32 cycles
 SCF Done:  E(UB3LYP) =  -319.023907310     A.U. after   23 cycles
 SCF Done:  E(UB3LYP) =  -319.032889833     A.U. after   26 cycles
 SCF Done:  E(UB3LYP) =  -319.038227787     A.U. after   24 cycles
 SCF Done:  E(UB3LYP) =  -318.992483702     A.U. after   22 cycles
 SCF Done:  E(UB3LYP) =  -319.001139290     A.U. after   17 cycles
 SCF Done:  E(UB3LYP) =  -319.009497497     A.U. after   17 cycles
 SCF Done:  E(UB3LYP) =  -319.017510277     A.U. after   17 cycles
 SCF Done:  E(UB3LYP) =  -319.025090862     A.U. after   17 cycles
 SCF Done:  E(UB3LYP) =  -319.051137067     A.U. after   19 cycles
 SCF Done:  E(UB3LYP) =  -319.053465460     A.U. after   18 cycles
 SCF Done:  E(UB3LYP) =  -319.054193714     A.U. after   19 cycles
 SCF Done:  E(UB3LYP) =  -319.055275351     A.U. after   16 cycles
 SCF Done:  E(UB3LYP) =  -319.055325822     A.U. after   19 cycles
 SCF Done:  E(UB3LYP) =  -319.055421830     A.U. after   19 cycles
 SCF Done:  E(UB3LYP) =  -319.055427784     A.U. after   12 cycles
 SCF Done:  E(UB3LYP) =  -319.055428274     A.U. after   23 cycles
 SCF Done:  E(UB3LYP) =  -319.055428887     A.U. after   10 cycles
 Optimization completed.
    -- Stationary point found.
 Normal termination of Gaussian 09 at Tue Mar  6 17:23:53 2018.

 ----------------------------------------------------------------------
 #P Geom=AllCheck Guess=TCheck SCRF=Check GenChk UB3LYP/Aug-CC-pVDZ Fre
 q
 ----------------------------------------------------------------------

 Pyrrole-2-N2-UB3LYP-aug-cc-pVDZ-Duplet
 --------------------------------------
 Redundant internal coordinates taken from checkpoint file:
 Pyrrole-2-N2-UB3LYP-aug-cc-pVDZ-Duplet.chk
 Charge =  0 Multiplicity = 2

                         Standard orientation:
 ---------------------------------------------------------------------
 Center     Atomic      Atomic             Coordinates (Angstroms)
 Number     Number       Type             X           Y           Z
 ---------------------------------------------------------------------
      1          7           0       -1.713505   -0.448060   -0.000120
      2          7           0       -2.642127    0.301691    0.000324
      3          6           0       -0.354932   -0.077175   -0.000246
      4          6           0        0.314917    1.141226   -0.000208
      5          1           0       -0.156511    2.117922   -0.000546
      6          6           0        1.700560    0.842212    0.000242
      7          1           0        2.518180    1.556179    0.000347
      8          6           0        1.835411   -0.541889    0.000115
      9          1           0        2.722156   -1.165536    0.000130
     10          7           0        0.582662   -1.085856   -0.000212
     11          1           0        0.351224   -2.069232    0.000697
 ---------------------------------------------------------------------

 SCF Done:  E(UB3LYP) =  -319.055428887     A.U. after    1 cycles

 The electronic state is 2-A.
 Alpha  occ. eigenvalues --  -14.41929 -14.40679 -14.39220 -10.26649 -10.23797
 Alpha  occ. eigenvalues --  -10.20314 -10.20011  -1.07138  -1.00921  -0.80578
 Alpha  occ. eigenvalues --   -0.79053  -0.67423  -0.61826  -0.59799  -0.51103
 Alpha  occ. eigenvalues --   -0.47647  -0.46467  -0.46214  -0.42939  -0.41252
 Alpha  occ. eigenvalues --   -0.40750  -0.39668  -0.27729  -0.24383  -0.20897
 Alpha virt. eigenvalues --   -0.06962  -0.01794   0.00276   0.01118   0.01492
 Alpha virt. eigenvalues --    0.02822   0.04005   0.04342   0.05561   0.06382
 Alpha virt. eigenvalues --    0.07843   0.08223   0.08237   0.08370   0.08719

  Beta  occ. eigenvalues --  -14.41592 -14.40693 -14.37581 -10.26314 -10.23829
  Beta  occ. eigenvalues --  -10.20326 -10.20002  -1.05475  -1.00647  -0.80547
  Beta  occ. eigenvalues --   -0.77847  -0.66358  -0.61755  -0.59605  -0.50224
  Beta  occ. eigenvalues --   -0.46364  -0.46134  -0.44476  -0.41810  -0.40822
  Beta  occ. eigenvalues --   -0.40214  -0.36424  -0.27821  -0.23979
  Beta virt. eigenvalues --   -0.06518  -0.05848  -0.01655   0.00282   0.01183
  Beta virt. eigenvalues --    0.01505   0.02861   0.04049   0.04358   0.05629
  Beta virt. eigenvalues --    0.06700   0.07888   0.08205   0.08351   0.08391

 Mulliken atomic charges:
              1
     1  N    0.128119
     2  N   -0.599879
     3  C   -0.333534
     4  C    1.542652
     5  H   -0.633946
     6  C    0.979351
     7  H   -0.586142
     8  C    0.219095
     9  H   -0.561661
    10  N    0.040468
    11  H   -0.194524
 Sum of Mulliken atomic charges =   0.00000

 Dipole moment (field-independent basis, Debye):
    X=              3.3970    Y=             -1.4899    Z=              0.0007  Tot=              3.7094
 Quadrupole moment (field-independent basis, Debye-Ang):
   XX=            -45.9601   YY=            -34.1515   ZZ=            -42.9519
   XY=             -0.8180   XZ=              0.0020   YZ=             -0.0042

  Exact polarizability: 108.207  -2.870  70.119   0.001   0.000  43.227
 Approx polarizability: 180.234  -9.917 116.507   0.001   0.005  64.295

                     1                      2                      3
                     A                      A                      A
 Frequencies --   157.9510               232.4038               289.3526
 Red. masses --     7.0395                 6.1163                 8.6351
 Frc consts  --     0.1035                 0.1946                 0.4260
 IR Inten    --     0.0015                 2.0414                 0.0623

                     4                      5                      6
                     A                      A                      A
 Frequencies --   498.9757               544.8349               624.3607
 Red. masses --     7.5550                 1.4709                 2.9222
 Frc consts  --     1.1083                 0.2573                 0.6712
 IR Inten    --    11.7854                58.6245                 1.3752

                     7                      8                      9
                     A                      A                      A
 Frequencies --   644.2830               660.5639               732.6581
 Red. masses --     2.4743                 8.6473                 1.2192
 Frc consts  --     0.6051                 2.2231                 0.3856
 IR Inten    --     4.4591                26.4999                96.3679

                    10                     11                     12
                     A                      A                      A
 Frequencies --   815.2357               878.8916               888.2186
 Red. masses --     1.3207                 1.3565                 5.6097
 Frc consts  --     0.5172                 0.6174                 2.6075
 IR Inten    --    17.4308                 1.0725                 4.1586

                    13                     14                     15
                     A                      A                      A
 Frequencies --   971.1918              1041.9618              1095.0606
 Red. masses --     2.8055                 1.3029                 1.7217
 Frc consts  --     1.5591                 0.8334                 1.2164
 IR Inten    --     1.0126                34.6217                46.8909

                    16                     17                     18
                     A                      A                      A
 Frequencies --  1127.4100              1265.0545              1273.6938
 Red. masses --     1.3705                 6.3147                 1.4466
 Frc consts  --     1.0263                 5.9542                 1.3827
 IR Inten    --    18.0608                14.7377                 0.7668

                    19                     20                     21
                     A                      A                      A
 Frequencies --  1410.5940              1463.8475              1474.2365
 Red. masses --     5.0431                 3.9368                 3.4990
 Frc consts  --     5.9122                 4.9704                 4.4806
 IR Inten    --    51.1104                 2.5908                25.1953

                    22                     23                     24
                     A                      A                      A
 Frequencies --  1560.6384              1794.8725              3246.9169
 Red. masses --     3.3905                13.5592                 1.0910
 Frc consts  --     4.8653                25.7366                 6.7767
 IR Inten    --     3.1468                66.9611                 2.0415

                    25                     26                     27
                     A                      A                      A
 Frequencies --  3266.4582              3274.0189              3644.5585
 Red. masses --     1.0974                 1.1050                 1.0813
 Frc consts  --     6.8987                 6.9785                 8.4619
 IR Inten    --     0.4078                 0.1879                89.7648

 - Thermochemistry -
 -------------------
 Temperature   298.150 Kelvin.  Pressure   1.00000 Atm.
 Atom     1 has atomic number  7 and mass  14.00307

 Molecular mass:    94.04052 amu.
 Principal axes and moments of inertia in atomic units:
                           1         2         3
     Eigenvalues --   217.74739 839.731961057.47931
           X            1.00000  -0.00162   0.00001
           Y            0.00162   1.00000  -0.00004
           Z           -0.00001   0.00004   1.00000
 This molecule is an asymmetric top.
 Rotational symmetry number  1.
 Rotational temperatures (Kelvin)      0.39777     0.10314     0.08191
 Rotational constants (GHZ):           8.28823     2.14919     1.70664
 Zero-point vibrational energy     208618.2 (Joules/Mol)
                                   49.86095 (Kcal/Mol)
 Warning -- explicit consideration of   5 degrees of freedom as
           vibrations may cause significant error
 Vibrational temperatures:    227.26   334.38   416.31   717.91   783.89
          (Kelvin)            898.31   926.98   950.40  1054.13  1172.94
                             1264.53  1277.95  1397.33  1499.15  1575.55
                             1622.09  1820.13  1832.56  2029.53  2106.15
                             2121.09  2245.41  2582.42  4671.58  4699.70
                             4710.58  5243.70

 Zero-point correction=                           0.079458 (Hartree/Particle)
 Thermal correction to Energy=                    0.085156
 Thermal correction to Enthalpy=                  0.086100
 Thermal correction to Gibbs Free Energy=         0.049452
 Sum of electronic and zero-point Energies=           -318.975970
 Sum of electronic and thermal Energies=              -318.970273
 Sum of electronic and thermal Enthalpies=            -318.969329
 Sum of electronic and thermal Free Energies=         -319.005976

                     E (Thermal)             CV                S
                      KCal/Mol        Cal/Mol-Kelvin    Cal/Mol-Kelvin
 Total                   53.436             20.978             77.132
 Electronic               0.000              0.000              1.377
 Translational            0.889              2.981             39.535
 Rotational               0.889              2.981             26.761
 Vibrational             51.659             15.016              9.458
 Vibration     1          0.621              1.894              2.574
 Vibration     2          0.653              1.791              1.860
 Vibration     3          0.686              1.694              1.478
 Vibration     4          0.854              1.252              0.661
 Vibration     5          0.900              1.151              0.555

 Optimization completed.
    -- Stationary point found.
 Normal termination of Gaussian 09 at Tue Mar  6 17:28:27 2018.
