 Gaussian 09, Revision B.01,
 Gaussian 09:  EM64L-G09RevB.01 12-Aug-2010

 -------------------------------------------------
 #p Temperature=298.15 opt freq UB3LYP/aug-cc-pVDZ
 -------------------------------------------------

 -------------------------------------
 Pyrrole-3+-UB3LYP-aug-cc-pVDZ-Triplet
 -------------------------------------
 Symbolic Z-matrix:
 Charge =  1 Multiplicity = 3

 SCF Done:  E(UB3LYP) =  -209.185689635     A.U. after   17 cycles
 SCF Done:  E(UB3LYP) =  -209.196490741     A.U. after   17 cycles
 SCF Done:  E(UB3LYP) =  -209.197362392     A.U. after   17 cycles
 SCF Done:  E(UB3LYP) =  -209.197351156     A.U. after   14 cycles
 SCF Done:  E(UB3LYP) =  -209.197422717     A.U. after   13 cycles
 SCF Done:  E(UB3LYP) =  -209.197426240     A.U. after   13 cycles
 Optimization completed.
    -- Stationary point found.
 Normal termination of Gaussian 09 at Fri Jan 21 13:57:43 2005.

 ----------------------------------------------------------------------
 #P Geom=AllCheck Guess=TCheck SCRF=Check GenChk UB3LYP/Aug-CC-pVDZ Fre
 q
 ----------------------------------------------------------------------

 Pyrrole-3+-UB3LYP-aug-cc-pVDZ-Triplet
 -------------------------------------
 Redundant internal coordinates taken from checkpoint file:
 Pyrrole-3+-UB3LYP-aug-cc-pVDZ-Triplet.chk
 Charge =  1 Multiplicity = 3

                         Standard orientation:
 ---------------------------------------------------------------------
 Center     Atomic      Atomic             Coordinates (Angstroms)
 Number     Number       Type             X           Y           Z
 ---------------------------------------------------------------------
      1          6           0        0.317036   -1.217082   -0.000193
      2          6           0        1.257553   -0.224007    0.000221
      3          1           0        2.341500   -0.293254    0.000122
      4          6           0        0.500463    0.983151   -0.000127
      5          1           0        0.844911    2.016012   -0.000245
      6          7           0       -0.852547    0.680366   -0.000030
      7          1           0       -1.603475    1.365589    0.000450
      8          6           0       -1.013317   -0.659359    0.000084
      9          1           0       -1.985522   -1.147120   -0.000024
 ---------------------------------------------------------------------

 SCF Done:  E(UB3LYP) =  -209.197426240     A.U. after    1 cycles

 The electronic state is 3-A.
 Alpha  occ. eigenvalues --  -14.63833 -10.50982 -10.50082 -10.47095 -10.42841
 Alpha  occ. eigenvalues --   -1.25110  -1.04082  -0.99063  -0.84295  -0.81128
 Alpha  occ. eigenvalues --   -0.79868  -0.68182  -0.67984  -0.67113  -0.64657
 Alpha  occ. eigenvalues --   -0.51267  -0.51106  -0.49507
 Alpha virt. eigenvalues --   -0.24791  -0.18434  -0.17097  -0.12958  -0.12699
 Alpha virt. eigenvalues --   -0.11758  -0.10518  -0.10453  -0.08955  -0.06035
 Alpha virt. eigenvalues --   -0.05301  -0.05236  -0.04074  -0.03728  -0.03089

  Beta  occ. eigenvalues --  -14.63960 -10.50152 -10.49197 -10.45149 -10.42915
  Beta  occ. eigenvalues --   -1.24120  -1.02552  -0.96326  -0.83481  -0.79489
  Beta  occ. eigenvalues --   -0.77877  -0.67446  -0.66001  -0.65215  -0.63507
  Beta  occ. eigenvalues --   -0.49871
  Beta virt. eigenvalues --   -0.38235  -0.32828  -0.20616  -0.16956  -0.14826
  Beta virt. eigenvalues --   -0.12782  -0.12330  -0.11106  -0.10301  -0.10106
  Beta virt. eigenvalues --   -0.08457  -0.05622  -0.05032  -0.04803  -0.03739

 Mulliken atomic charges:
              1
     1  C   -0.122847
     2  C    1.272445
     3  H   -0.357309
     4  C    0.462386
     5  H   -0.405694
     6  N    0.013064
     7  H   -0.088339
     8  C    0.545848
     9  H   -0.319555
 Sum of Mulliken atomic charges =   1.00000

 Dipole moment (field-independent basis, Debye):
    X=             -1.5883    Y=              1.7027    Z=              0.0005  Tot=              2.3286
 Quadrupole moment (field-independent basis, Debye-Ang):
   XX=            -14.2742   YY=            -18.4196   ZZ=            -28.6225
   XY=              0.6186   XZ=             -0.0015   YZ=              0.0007

  Exact polarizability:  52.361   3.254  50.598   0.001   0.001  28.019
 Approx polarizability:  81.005   7.161  86.635   0.004   0.002  41.086

                     1                      2                      3
                     A                      A                      A
 Frequencies --   491.6196               524.9518               665.7513
 Red. masses --     2.4769                 2.7374                 1.1547
 Frc consts  --     0.3527                 0.4444                 0.3015
 IR Inten    --    26.1299                20.8398                60.9024

                     4                      5                      6
                     A                      A                      A
 Frequencies --   729.0001               803.2350               860.3429
 Red. masses --     9.2926                 1.3122                 1.4892
 Frc consts  --     2.9097                 0.4988                 0.6494
 IR Inten    --    34.4368                58.5433                 0.1056

                     7                      8                      9
                     A                      A                      A
 Frequencies --   866.0293               894.4836               971.0081
 Red. masses --     5.2486                 1.5002                 1.9484
 Frc consts  --     2.3193                 0.7072                 1.0824
 IR Inten    --     5.6108                 5.7120                 7.7392

                    10                     11                     12
                     A                      A                      A
 Frequencies --  1011.5319              1078.2834              1166.4042
 Red. masses --     2.2381                 1.6094                 4.4248
 Frc consts  --     1.3493                 1.1025                 3.5468
 IR Inten    --    23.0339                20.1501                 3.5963

                    13                     14                     15
                     A                      A                      A
 Frequencies --  1232.5516              1259.5049              1445.8089
 Red. masses --     1.4204                 1.5450                 2.8031
 Frc consts  --     1.2714                 1.4441                 3.4523
 IR Inten    --     4.4463                26.2783                21.7449

                    16                     17                     18
                     A                      A                      A
 Frequencies --  1474.2405              1507.3215              3243.2539
 Red. masses --     2.1075                 3.5567                 1.0955
 Frc consts  --     2.6987                 4.7611                 6.7895
 IR Inten    --    94.7017                 0.5428                22.5377

                    19                     20                     21
                     A                      A                      A
 Frequencies --  3258.1980              3265.8441              3572.8866
 Red. masses --     1.0990                 1.1027                 1.0836
 Frc consts  --     6.8739                 6.9296                 8.1499
 IR Inten    --    41.2838                30.0739               207.8067

 - Thermochemistry -
 -------------------
 Temperature   298.150 Kelvin.  Pressure   1.00000 Atm.
 Atom     1 has atomic number  6 and mass  12.00000

 Molecular mass:    66.03437 amu.
 Principal axes and moments of inertia in atomic units:
                           1         2         3
     Eigenvalues --   174.57237 209.33020 383.90256
           X            0.99367   0.11231  -0.00001
           Y           -0.11231   0.99367   0.00000
           Z            0.00001   0.00000   1.00000
 This molecule is an asymmetric top.
 Rotational symmetry number  1.
 Rotational temperatures (Kelvin)      0.49615     0.41377     0.22561
 Rotational constants (GHZ):          10.33807     8.62150     4.70104
 Zero-point vibrational energy     181367.3 (Joules/Mol)
                                   43.34783 (Kcal/Mol)
 Warning -- explicit consideration of   2 degrees of freedom as
           vibrations may cause significant error
 Vibrational temperatures:    707.33   755.29   957.87  1048.87  1155.67
          (Kelvin)           1237.84  1246.02  1286.96  1397.06  1455.37
                             1551.41  1678.19  1773.36  1812.14  2080.19
                             2121.10  2168.70  4666.31  4687.81  4698.82
                             5140.58

 Zero-point correction=                           0.069079 (Hartree/Particle)
 Thermal correction to Energy=                    0.073001
 Thermal correction to Enthalpy=                  0.073945
 Thermal correction to Gibbs Free Energy=         0.041727
 Sum of electronic and zero-point Energies=           -209.128347
 Sum of electronic and thermal Energies=              -209.124425
 Sum of electronic and thermal Enthalpies=            -209.123481
 Sum of electronic and thermal Free Energies=         -209.155699

                     E (Thermal)             CV                S
                      KCal/Mol        Cal/Mol-Kelvin    Cal/Mol-Kelvin
 Total                   45.809             14.255             67.808
 Electronic               0.000              0.000              2.183
 Translational            0.889              2.981             38.481
 Rotational               0.889              2.981             24.154
 Vibrational             44.031              8.293              2.989
 Vibration     1          0.847              1.269              0.679
 Vibration     2          0.880              1.195              0.599

 Optimization completed.
    -- Stationary point found.
 Normal termination of Gaussian 09 at Fri Jan 21 13:59:12 2005.
