 Gaussian 09, Revision B.01,
 Gaussian 09:  EM64L-G09RevB.01 12-Aug-2010

 -------------------------------------------------
 #p Temperature=298.15 opt freq UB3LYP/aug-cc-pVDZ
 -------------------------------------------------

 ----------------------------------------
 Pyrrole-2-N2+-UB3LYP-aug-cc-pVDZ-Singlet
 ----------------------------------------
 Symbolic Z-matrix:
 Charge =  1 Multiplicity = 1

 SCF Done:  E(UB3LYP) =  -318.794221546     A.U. after   16 cycles
 SCF Done:  E(UB3LYP) =  -318.804970328     A.U. after   13 cycles
 SCF Done:  E(UB3LYP) =  -318.804618920     A.U. after   15 cycles
 SCF Done:  E(UB3LYP) =  -318.805414533     A.U. after   14 cycles
 SCF Done:  E(UB3LYP) =  -318.805612231     A.U. after   16 cycles
 SCF Done:  E(UB3LYP) =  -318.805752687     A.U. after   11 cycles
 SCF Done:  E(UB3LYP) =  -318.805754482     A.U. after   10 cycles
 SCF Done:  E(UB3LYP) =  -318.805754807     A.U. after    9 cycles
 Optimization completed.
    -- Stationary point found.
 Normal termination of Gaussian 09 at Tue Mar  6 11:09:46 2018.

 ----------------------------------------------------------------------
 #P Geom=AllCheck Guess=TCheck SCRF=Check GenChk UB3LYP/Aug-CC-pVDZ Fre
 q
 ----------------------------------------------------------------------

 Pyrrole-2-N2+-UB3LYP-aug-cc-pVDZ-Singlet
 ----------------------------------------
 Redundant internal coordinates taken from checkpoint file:
 Pyrrole-2-N2+-UB3LYP-aug-cc-pVDZ-Singlet.chk
 Charge =  1 Multiplicity = 1

                         Standard orientation:
 ---------------------------------------------------------------------
 Center     Atomic      Atomic             Coordinates (Angstroms)
 Number     Number       Type             X           Y           Z
 ---------------------------------------------------------------------
      1          7           0        1.664917    0.013071   -0.000096
      2          7           0        2.789162    0.007377   -0.000073
      3          6           0        0.328789    0.058221    0.000008
      4          6           0       -0.510301    1.193309   -0.000046
      5          1           0       -0.178138    2.227062   -0.000059
      6          6           0       -1.813911    0.698502    0.000277
      7          1           0       -2.726415    1.285866    0.000610
      8          6           0       -1.745825   -0.705458   -0.000618
      9          1           0       -2.545442   -1.440758   -0.000715
     10          7           0       -0.452105   -1.090735    0.000344
     11          1           0       -0.116342   -2.047603    0.001219
 ---------------------------------------------------------------------

 SCF Done:  E(UB3LYP) =  -318.805754807     A.U. after    1 cycles

 The electronic state is 1-A.
 Alpha  occ. eigenvalues --  -14.72381 -14.68086 -14.61524 -10.50115 -10.44626
 Alpha  occ. eigenvalues --  -10.41782 -10.39171  -1.37182  -1.22427  -1.07735
 Alpha  occ. eigenvalues --   -1.00948  -0.89369  -0.81738  -0.81020  -0.73226
 Alpha  occ. eigenvalues --   -0.71357  -0.70634  -0.68108  -0.65821  -0.63253
 Alpha  occ. eigenvalues --   -0.60720  -0.60552  -0.47966  -0.45579
 Alpha virt. eigenvalues --   -0.29102  -0.28984  -0.16738  -0.16483  -0.13325
 Alpha virt. eigenvalues --   -0.12811  -0.11850  -0.10595  -0.09776  -0.09741
 Alpha virt. eigenvalues --   -0.09369  -0.05644  -0.05048  -0.04993  -0.04262

  Beta  occ. eigenvalues --  -14.72381 -14.68086 -14.61524 -10.50115 -10.44626
  Beta  occ. eigenvalues --  -10.41782 -10.39171  -1.37182  -1.22427  -1.07735
  Beta  occ. eigenvalues --   -1.00948  -0.89369  -0.81738  -0.81020  -0.73226
  Beta  occ. eigenvalues --   -0.71357  -0.70634  -0.68108  -0.65821  -0.63253
  Beta  occ. eigenvalues --   -0.60720  -0.60552  -0.47966  -0.45579
  Beta virt. eigenvalues --   -0.29102  -0.28984  -0.16738  -0.16483  -0.13325
  Beta virt. eigenvalues --   -0.12811  -0.11850  -0.10595  -0.09776  -0.09741
  Beta virt. eigenvalues --   -0.09369  -0.05644  -0.05048  -0.04993  -0.04262

 Mulliken atomic charges:
              1
     1  N    0.486202
     2  N   -0.462111
     3  C    0.132555
     4  C    1.240056
     5  H   -0.580565
     6  C    0.935789
     7  H   -0.497800
     8  C    0.294566
     9  H   -0.479358
    10  N    0.060752
    11  H   -0.130086
 Sum of Mulliken atomic charges =   1.00000

 Dipole moment (field-independent basis, Debye):
    X=             -0.5956    Y=             -1.3982    Z=              0.0011  Tot=              1.5198
 Quadrupole moment (field-independent basis, Debye-Ang):
   XX=            -22.3477   YY=            -24.9292   ZZ=            -39.5693
   XY=              0.9605   XZ=              0.0005   YZ=             -0.0026

  Exact polarizability: 111.393   0.649  58.522   0.002   0.002  35.319
 Approx polarizability: 238.531   2.550  96.630   0.016   0.004  52.954

                     1                      2                      3
                     A                      A                      A
 Frequencies --   158.4042               188.1024               479.2258
 Red. masses --     6.0882                 6.5364                 6.7706
 Frc consts  --     0.0900                 0.1363                 0.9161
 IR Inten    --     0.0119                 1.3484                 2.1670

                     4                      5                      6
                     A                      A                      A
 Frequencies --   525.3899               546.1049               580.8347
 Red. masses --     2.1543                 7.9718                 3.0318
 Frc consts  --     0.3504                 1.4008                 0.6026
 IR Inten    --    55.6792                 0.0019                 6.7144

                     7                      8                      9
                     A                      A                      A
 Frequencies --   584.4397               619.5362               775.8767
 Red. masses --     8.2817                 1.7373                 1.1804
 Frc consts  --     1.6667                 0.3929                 0.4186
 IR Inten    --     1.1517                27.4572                86.7141

                    10                     11                     12
                     A                      A                      A
 Frequencies --   879.2460               899.7088               936.3921
 Red. masses --     5.8285                 1.3273                 1.4184
 Frc consts  --     2.6548                 0.6330                 0.7328
 IR Inten    --     4.0112                 0.4031                 0.1751

                    13                     14                     15
                     A                      A                      A
 Frequencies --   959.6387              1077.1681              1101.1183
 Red. masses --     3.2050                 1.2269                 1.8767
 Frc consts  --     1.7390                 0.8387                 1.3406
 IR Inten    --    21.3672                38.6325                 0.1263

                    16                     17                     18
                     A                      A                      A
 Frequencies --  1149.3153              1289.2904              1345.9285
 Red. masses --     1.3519                 1.5113                 5.5009
 Frc consts  --     1.0521                 1.4801                 5.8712
 IR Inten    --    56.8186                 0.4744                49.4612

                    19                     20                     21
                     A                      A                      A
 Frequencies --  1400.3677              1438.2235              1516.1762
 Red. masses --     4.2391                 4.1932                 3.7132
 Frc consts  --     4.8979                 5.1103                 5.0292
 IR Inten    --   212.5812                36.4922                 5.2476

                    22                     23                     24
                     A                      A                      A
 Frequencies --  1540.4624              2274.6500              3257.5898
 Red. masses --     2.7740                13.9325                 1.0939
 Frc consts  --     3.8785                42.4726                 6.8392
 IR Inten    --    13.6130               467.8237                 0.5730

                    25                     26                     27
                     A                      A                      A
 Frequencies --  3264.9413              3275.7606              3603.9775
 Red. masses --     1.0996                 1.1076                 1.0837
 Frc consts  --     6.9062                 7.0029                 8.2931
 IR Inten    --    33.3362                23.8034               187.3067

 - Thermochemistry -
 -------------------
 Temperature   298.150 Kelvin.  Pressure   1.00000 Atm.
 Atom     1 has atomic number  7 and mass  14.00307

 Molecular mass:    94.04052 amu.
 Principal axes and moments of inertia in atomic units:
                           1         2         3
     Eigenvalues --   209.26655 874.323341083.58982
           X            1.00000   0.00000   0.00000
           Y            0.00000   1.00000  -0.00001
           Z            0.00000   0.00001   1.00000
 This molecule is an asymmetric top.
 Rotational symmetry number  1.
 Rotational temperatures (Kelvin)      0.41389     0.09906     0.07993
 Rotational constants (GHZ):           8.62413     2.06416     1.66552
 Zero-point vibrational energy     213341.2 (Joules/Mol)
                                   50.98978 (Kcal/Mol)
 Warning -- explicit consideration of   8 degrees of freedom as
           vibrations may cause significant error
 Vibrational temperatures:    227.91   270.64   689.50   755.92   785.72
          (Kelvin)            835.69   840.88   891.37  1116.31  1265.04
                             1294.48  1347.26  1380.70  1549.80  1584.26
                             1653.61  1855.00  1936.49  2014.81  2069.28
                             2181.44  2216.38  3272.71  4686.94  4697.52
                             4713.08  5185.31

 Zero-point correction=                           0.081257 (Hartree/Particle)
 Thermal correction to Energy=                    0.086830
 Thermal correction to Enthalpy=                  0.087774
 Thermal correction to Gibbs Free Energy=         0.051943
 Sum of electronic and zero-point Energies=           -318.724497
 Sum of electronic and thermal Energies=              -318.718925
 Sum of electronic and thermal Enthalpies=            -318.717981
 Sum of electronic and thermal Free Energies=         -318.753812

                     E (Thermal)             CV                S
                      KCal/Mol        Cal/Mol-Kelvin    Cal/Mol-Kelvin
 Total                   54.487             20.513             75.413
 Electronic               0.000              0.000              0.000
 Translational            0.889              2.981             39.535
 Rotational               0.889              2.981             26.786
 Vibrational             52.709             14.551              9.093
 Vibration     1          0.621              1.893              2.569
 Vibration     2          0.633              1.856              2.246
 Vibration     3          0.836              1.296              0.712
 Vibration     4          0.880              1.194              0.598
 Vibration     5          0.901              1.148              0.552
 Vibration     6          0.938              1.073              0.484
 Vibration     7          0.941              1.065              0.477
 Vibration     8          0.979              0.991              0.417

 Normal termination of Gaussian 09 at Tue Mar  6 11:14:03 2018.
