 Gaussian 09, Revision B.01,
 Gaussian 09:  EM64L-G09RevB.01 12-Aug-2010

 -------------------------------------------------
 #p Temperature=298.15 opt freq UB3LYP/aug-cc-pVDZ
 -------------------------------------------------

 -------------------------------------
 Pyrrole-2+-UB3LYP-aug-cc-pVDZ-Triplet
 -------------------------------------
 Symbolic Z-matrix:
 Charge =  1 Multiplicity = 3

 SCF Done:  E(UB3LYP) =  -209.192038106     A.U. after   16 cycles
 SCF Done:  E(UB3LYP) =  -209.199691479     A.U. after   15 cycles
 SCF Done:  E(UB3LYP) =  -209.200309091     A.U. after   17 cycles
 SCF Done:  E(UB3LYP) =  -209.200365189     A.U. after   14 cycles
 SCF Done:  E(UB3LYP) =  -209.200367438     A.U. after   17 cycles
 SCF Done:  E(UB3LYP) =  -209.200377103     A.U. after   12 cycles
 Optimization completed.
    -- Stationary point found.
 Normal termination of Gaussian 09 at Fri Jan 21 13:01:46 2005.

 ----------------------------------------------------------------------
 #P Geom=AllCheck Guess=TCheck SCRF=Check GenChk UB3LYP/Aug-CC-pVDZ Fre
 q
 ----------------------------------------------------------------------

 Pyrrole-2+-UB3LYP-aug-cc-pVDZ-Triplet
 -------------------------------------
 Redundant internal coordinates taken from checkpoint file:
 Pyrrole-2+-UB3LYP-aug-cc-pVDZ-Triplet.chk
 Charge =  1 Multiplicity = 3

                         Standard orientation:
 ---------------------------------------------------------------------
 Center     Atomic      Atomic             Coordinates (Angstroms)
 Number     Number       Type             X           Y           Z
 ---------------------------------------------------------------------
      1          6           0        0.072158   -1.195329    0.000011
      2          6           0       -1.168833   -0.487978   -0.000041
      3          1           0       -2.159494   -0.932157   -0.000036
      4          6           0       -0.809415    0.845014    0.000046
      5          1           0       -1.473150    1.706403    0.000150
      6          6           0        0.628401    0.922332   -0.000043
      7          1           0        1.280968    1.793772   -0.000118
      8          7           0        1.129589   -0.350797   -0.000006
      9          1           0        2.110690   -0.616671    0.000207
 ---------------------------------------------------------------------

 SCF Done:  E(UB3LYP) =  -209.200377103     A.U. after    1 cycles

 The electronic state is 3-A.
 Alpha  occ. eigenvalues --  -14.64031 -10.52777 -10.50511 -10.44130 -10.43861
 Alpha  occ. eigenvalues --   -1.25647  -1.04268  -0.98409  -0.84988  -0.82604
 Alpha  occ. eigenvalues --   -0.77281  -0.69396  -0.68257  -0.65334  -0.63896
 Alpha  occ. eigenvalues --   -0.54079  -0.50894  -0.49689
 Alpha virt. eigenvalues --   -0.24618  -0.18828  -0.16905  -0.13065  -0.12223
 Alpha virt. eigenvalues --   -0.10939  -0.10434  -0.10379  -0.09302  -0.05774
 Alpha virt. eigenvalues --   -0.05501  -0.05000  -0.04277  -0.03938  -0.03138

  Beta  occ. eigenvalues --  -14.64176 -10.50353 -10.49637 -10.43936 -10.43711
  Beta  occ. eigenvalues --   -1.24307  -1.03444  -0.94837  -0.84338  -0.81412
  Beta  occ. eigenvalues --   -0.74634  -0.68792  -0.65359  -0.64178  -0.63086
  Beta  occ. eigenvalues --   -0.50414
  Beta virt. eigenvalues --   -0.37792  -0.35076  -0.19749  -0.16811  -0.15741
  Beta virt. eigenvalues --   -0.12972  -0.11792  -0.10520  -0.10172  -0.10075
  Beta virt. eigenvalues --   -0.08664  -0.05651  -0.05008  -0.04553  -0.03952

 Mulliken atomic charges:
              1
     1  C   -0.078518
     2  C    0.755347
     3  H   -0.379177
     4  C    1.268944
     5  H   -0.461361
     6  C    0.319254
     7  H   -0.383457
     8  N    0.048618
     9  H   -0.089650
 Sum of Mulliken atomic charges =   1.00000

 Dipole moment (field-independent basis, Debye):
    X=              1.5149    Y=              0.5216    Z=              0.0003  Tot=              1.6022
 Quadrupole moment (field-independent basis, Debye-Ang):
   XX=            -13.5581   YY=            -18.9277   ZZ=            -28.6213
   XY=              0.1011   XZ=              0.0006   YZ=             -0.0002

  Exact polarizability:  50.858   1.893  52.222   0.000   0.000  27.671
 Approx polarizability:  78.821   3.718  89.830   0.000   0.001  40.785

                     1                      2                      3
                     A                      A                      A
 Frequencies --   496.6673               589.4071               633.9920
 Red. masses --     2.3356                 4.2629                 1.2370
 Frc consts  --     0.3395                 0.8725                 0.2929
 IR Inten    --    18.2788                 6.1060                49.1233

                     4                      5                      6
                     A                      A                      A
 Frequencies --   746.4868               747.7508               869.3977
 Red. masses --     1.1884                 8.3043                 1.4526
 Frc consts  --     0.3902                 2.7357                 0.6469
 IR Inten    --   110.1292                17.2274                 1.3439

                     7                      8                      9
                     A                      A                      A
 Frequencies --   871.0581               937.1222               985.8333
 Red. masses --     5.2434                 1.3664                 1.9610
 Frc consts  --     2.3440                 0.7070                 1.1229
 IR Inten    --     0.4908                 0.0345                 4.7311

                    10                     11                     12
                     A                      A                      A
 Frequencies --  1024.4455              1082.5901              1152.9591
 Red. masses --     2.0932                 1.2988                 3.9934
 Frc consts  --     1.2943                 0.8969                 3.1277
 IR Inten    --    22.9531                 7.0715                 4.7816

                    13                     14                     15
                     A                      A                      A
 Frequencies --  1201.6358              1303.2649              1386.9656
 Red. masses --     2.1301                 1.4793                 2.5832
 Frc consts  --     1.8122                 1.4804                 2.9278
 IR Inten    --    20.2286                 9.6408                52.7361

                    16                     17                     18
                     A                      A                      A
 Frequencies --  1461.0565              1497.0425              3242.7246
 Red. masses --     2.2614                 3.6388                 1.0952
 Frc consts  --     2.8442                 4.8048                 6.7851
 IR Inten    --    85.7950                 7.7489                12.4321

                    19                     20                     21
                     A                      A                      A
 Frequencies --  3253.7234              3275.2459              3576.7817
 Red. masses --     1.0990                 1.1042                 1.0832
 Frc consts  --     6.8553                 6.9788                 8.1648
 IR Inten    --    35.7375                34.6541               258.6819

 - Thermochemistry -
 -------------------
 Temperature   298.150 Kelvin.  Pressure   1.00000 Atm.
 Atom     1 has atomic number  6 and mass  12.00000

 Molecular mass:    66.03437 amu.
 Principal axes and moments of inertia in atomic units:
                           1         2         3
     Eigenvalues --   170.92330 214.17028 385.09358
           X            0.99919   0.04013   0.00000
           Y           -0.04013   0.99919   0.00000
           Z            0.00000   0.00000   1.00000
 This molecule is an asymmetric top.
 Rotational symmetry number  1.
 Rotational temperatures (Kelvin)      0.50674     0.40442     0.22492
 Rotational constants (GHZ):          10.55878     8.42667     4.68650
 Zero-point vibrational energy     181450.5 (Joules/Mol)
                                   43.36770 (Kcal/Mol)
 Warning -- explicit consideration of   2 degrees of freedom as
           vibrations may cause significant error
 Vibrational temperatures:    714.59   848.02   912.17  1074.03  1075.85
          (Kelvin)           1250.87  1253.26  1348.31  1418.39  1473.95
                             1557.60  1658.85  1728.88  1875.11  1995.53
                             2102.13  2153.91  4665.55  4681.38  4712.34
                             5146.18

 Zero-point correction=                           0.069111 (Hartree/Particle)
 Thermal correction to Energy=                    0.073002
 Thermal correction to Enthalpy=                  0.073946
 Thermal correction to Gibbs Free Energy=         0.041774
 Sum of electronic and zero-point Energies=           -209.131266
 Sum of electronic and thermal Energies=              -209.127376
 Sum of electronic and thermal Enthalpies=            -209.126431
 Sum of electronic and thermal Free Energies=         -209.158603

                     E (Thermal)             CV                S
                      KCal/Mol        Cal/Mol-Kelvin    Cal/Mol-Kelvin
 Total                   45.809             14.153             67.711
 Electronic               0.000              0.000              2.183
 Translational            0.889              2.981             38.481
 Rotational               0.889              2.981             24.159
 Vibrational             44.032              8.191              2.888
 Vibration     1          0.852              1.257              0.667
 Vibration     2          0.947              1.054              0.468

 Optimization completed.
    -- Stationary point found.
 Normal termination of Gaussian 09 at Fri Jan 21 13:03:16 2005.
