 Gaussian 09, Revision B.01,
 Gaussian 09:  EM64L-G09RevB.01 12-Aug-2010

 -------------------------------------------------
 #p Temperature=298.15 opt freq UB3LYP/aug-cc-pVDZ
 -------------------------------------------------

 -----------------------------------
 Pyrrole-2-UB3LYP-aug-cc-pVDZ-Duplet
 -----------------------------------
 Symbolic Z-matrix:
 Charge =  0 Multiplicity = 2

 SCF Done:  E(UB3LYP) =  -209.490835432     A.U. after   18 cycles
 SCF Done:  E(UB3LYP) =  -209.498097609     A.U. after   19 cycles
 SCF Done:  E(UB3LYP) =  -209.498721423     A.U. after   16 cycles
 SCF Done:  E(UB3LYP) =  -209.498770201     A.U. after   18 cycles
 SCF Done:  E(UB3LYP) =  -209.498764566     A.U. after   19 cycles
 SCF Done:  E(UB3LYP) =  -209.498776478     A.U. after   13 cycles
 Optimization completed.
    -- Stationary point found.
 Normal termination of Gaussian 09 at Tue Mar  6 17:30:35 2018.

 ----------------------------------------------------------------------
 #P Geom=AllCheck Guess=TCheck SCRF=Check GenChk UB3LYP/Aug-CC-pVDZ Fre
 q
 ----------------------------------------------------------------------

 Pyrrole-2-UB3LYP-aug-cc-pVDZ-Duplet
 -----------------------------------
 Redundant internal coordinates taken from checkpoint file:
 Pyrrole-2-UB3LYP-aug-cc-pVDZ-Duplet.chk
 Charge =  0 Multiplicity = 2

                         Standard orientation:
 ---------------------------------------------------------------------
 Center     Atomic      Atomic             Coordinates (Angstroms)
 Number     Number       Type             X           Y           Z
 ---------------------------------------------------------------------
      1          6           0       -0.060439   -1.205120    0.000357
      2          6           0       -1.185442   -0.419451   -0.000009
      3          1           0       -2.219410   -0.744516   -0.000689
      4          6           0       -0.686722    0.931371   -0.000173
      5          1           0       -1.293536    1.832585    0.000949
      6          6           0        0.693508    0.888082   -0.000334
      7          1           0        1.435192    1.679179    0.001441
      8          7           0        1.070862   -0.448349    0.000019
      9          1           0        2.016289   -0.798099   -0.000875
 ---------------------------------------------------------------------

 SCF Done:  E(UB3LYP) =  -209.498776478     A.U. after    1 cycles

 The electronic state is 2-A.
 Alpha  occ. eigenvalues --  -14.39095 -10.24154 -10.21531 -10.18443 -10.18389
 Alpha  occ. eigenvalues --   -0.99282  -0.78766  -0.72527  -0.60356  -0.57791
 Alpha  occ. eigenvalues --   -0.51925  -0.44966  -0.41936  -0.40850  -0.39790
 Alpha  occ. eigenvalues --   -0.28749  -0.25707  -0.22841
 Alpha virt. eigenvalues --   -0.01385   0.00900   0.01472   0.01532   0.03119
 Alpha virt. eigenvalues --    0.04681   0.04986   0.05434   0.06677   0.08685
 Alpha virt. eigenvalues --    0.08897   0.09022   0.09311   0.09756   0.10788

  Beta  occ. eigenvalues --  -14.39030 -10.22531 -10.21502 -10.18364 -10.18319
  Beta  occ. eigenvalues --   -0.98510  -0.78340  -0.71190  -0.59936  -0.57227
  Beta  occ. eigenvalues --   -0.50202  -0.44518  -0.41533  -0.40296  -0.39188
  Beta  occ. eigenvalues --   -0.25816  -0.21892
  Beta virt. eigenvalues --   -0.12007  -0.01331   0.00914   0.01685   0.02302
  Beta virt. eigenvalues --    0.03139   0.05205   0.05367   0.05774   0.06805
  Beta virt. eigenvalues --    0.08785   0.08908   0.09098   0.09419   0.10015

 Mulliken atomic charges:
              1
     1  C   -0.394414
     2  C    0.779842
     3  H   -0.488463
     4  C    1.168600
     5  H   -0.581323
     6  C    0.202885
     7  H   -0.524187
     8  N    0.029508
     9  H   -0.192447
 Sum of Mulliken atomic charges =   0.00000

 Dipole moment (field-independent basis, Debye):
    X=              1.6773    Y=              0.2306    Z=             -0.0005  Tot=              1.6931
 Quadrupole moment (field-independent basis, Debye-Ang):
   XX=            -23.0746   YY=            -28.9462   ZZ=            -33.4724
   XY=             -1.2259   XZ=             -0.0002   YZ=              0.0101

  Exact polarizability:  61.882   1.039  60.007  -0.003  -0.035  40.078
 Approx polarizability: 100.265  -0.469  94.353  -0.006  -0.042  54.818

                     1                      2                      3
                     A                      A                      A
 Frequencies --   308.5635               475.4680               616.5119
 Red. masses --     2.8713                 1.2839                 3.0336
 Frc consts  --     0.1611                 0.1710                 0.6794
 IR Inten    --     1.5969                46.5498                 3.6650

                     4                      5                      6
                     A                      A                      A
 Frequencies --   690.3669               742.6851               840.2009
 Red. masses --     1.4727                 1.2260                 1.2802
 Frc consts  --     0.4136                 0.3984                 0.5325
 IR Inten    --    81.1882                71.1666                 0.0887

                     7                      8                      9
                     A                      A                      A
 Frequencies --   847.9589               882.6949              1018.0045
 Red. masses --     5.7699                 4.5473                 1.4484
 Frc consts  --     2.4444                 2.0875                 0.8844
 IR Inten    --     3.3979                 1.1594                19.4436

                    10                     11                     12
                     A                      A                      A
 Frequencies --  1054.2849              1099.3277              1169.8393
 Red. masses --     1.5074                 1.5879                 3.4321
 Frc consts  --     0.9872                 1.1307                 2.7673
 IR Inten    --    23.1115                10.1280                11.3306

                    13                     14                     15
                     A                      A                      A
 Frequencies --  1246.2938              1362.5486              1405.8130
 Red. masses --     1.4410                 3.3623                 2.6178
 Frc consts  --     1.3187                 3.6779                 3.0481
 IR Inten    --     2.8447                 3.2530                14.8473

                    16                     17                     18
                     A                      A                      A
 Frequencies --  1454.0061              1547.5632              3236.8671
 Red. masses --     4.1010                 3.6473                 1.0906
 Frc consts  --     5.1082                 5.1466                 6.7323
 IR Inten    --    19.6068                 0.3121                 1.5890

                    19                     20                     21
                     A                      A                      A
 Frequencies --  3266.9881              3272.2824              3669.4057
 Red. masses --     1.0982                 1.1019                 1.0804
 Frc consts  --     6.9060                 6.9514                 8.5711
 IR Inten    --     0.2798                 0.1256                90.0271

 - Thermochemistry -
 -------------------
 Temperature   298.150 Kelvin.  Pressure   1.00000 Atm.
 Atom     1 has atomic number  6 and mass  12.00000

 Molecular mass:    66.03437 amu.
 Principal axes and moments of inertia in atomic units:
                           1         2         3
     Eigenvalues --   177.10978 204.33689 381.44662
           X            0.99994   0.01070   0.00001
           Y           -0.01070   0.99994   0.00011
           Z           -0.00001  -0.00011   1.00000
 This molecule is an asymmetric top.
 Rotational symmetry number  1.
 Rotational temperatures (Kelvin)      0.48904     0.42388     0.22707
 Rotational constants (GHZ):          10.18996     8.83219     4.73131
 Zero-point vibrational energy     180682.0 (Joules/Mol)
                                   43.18404 (Kcal/Mol)
 Warning -- explicit consideration of   3 degrees of freedom as
           vibrations may cause significant error
 Vibrational temperatures:    443.95   684.09   887.02   993.28  1068.56
          (Kelvin)           1208.86  1220.02  1270.00  1464.68  1516.88
                             1581.69  1683.14  1793.14  1960.40  2022.65
                             2091.99  2226.60  4657.12  4700.46  4708.08
                             5279.45

 Zero-point correction=                           0.068818 (Hartree/Particle)
 Thermal correction to Energy=                    0.073006
 Thermal correction to Enthalpy=                  0.073950
 Thermal correction to Gibbs Free Energy=         0.041663
 Sum of electronic and zero-point Energies=           -209.429958
 Sum of electronic and thermal Energies=              -209.425770
 Sum of electronic and thermal Enthalpies=            -209.424826
 Sum of electronic and thermal Free Energies=         -209.457113

                     E (Thermal)             CV                S
                      KCal/Mol        Cal/Mol-Kelvin    Cal/Mol-Kelvin
 Total                   45.812             14.941             67.955
 Electronic               0.000              0.000              1.377
 Translational            0.889              2.981             38.481
 Rotational               0.889              2.981             24.138
 Vibrational             44.035              8.979              3.958
 Vibration     1          0.698              1.657              1.370
 Vibration     2          0.832              1.304              0.722
 Vibration     3          0.976              0.997              0.422

 Optimization completed.
    -- Stationary point found.
 Normal termination of Gaussian 09 at Tue Mar  6 17:32:08 2018.
