 Gaussian 09, Revision B.01,
 Gaussian 09:  EM64L-G09RevB.01 12-Aug-2010

 -------------------------------------------------
 #p Temperature=298.15 opt freq UB3LYP/aug-cc-pVDZ
 -------------------------------------------------

 ----------------------------------------
 Pyrrole-3-N2+-UB3LYP-aug-cc-pVDZ-Singlet
 ----------------------------------------
 Symbolic Z-matrix:
 Charge =  1 Multiplicity = 1

 SCF Done:  E(UB3LYP) =  -318.799113950     A.U. after   16 cycles
 SCF Done:  E(UB3LYP) =  -318.814866368     A.U. after   13 cycles
 SCF Done:  E(UB3LYP) =  -318.815415160     A.U. after   16 cycles
 SCF Done:  E(UB3LYP) =  -318.814676011     A.U. after   15 cycles
 SCF Done:  E(UB3LYP) =  -318.815857011     A.U. after   15 cycles
 SCF Done:  E(UB3LYP) =  -318.816016991     A.U. after   16 cycles
 SCF Done:  E(UB3LYP) =  -318.816020767     A.U. after    9 cycles
 SCF Done:  E(UB3LYP) =  -318.816021440     A.U. after   10 cycles
 SCF Done:  E(UB3LYP) =  -318.816022540     A.U. after   14 cycles
 Optimization completed.
    -- Stationary point found.
 Normal termination of Gaussian 09 at Tue Mar  6 11:26:54 2018.

 ----------------------------------------------------------------------
 #P Geom=AllCheck Guess=TCheck SCRF=Check GenChk UB3LYP/Aug-CC-pVDZ Fre
 q
 ----------------------------------------------------------------------

 Pyrrole-3-N2+-UB3LYP-aug-cc-pVDZ-Singlet
 ----------------------------------------
 Redundant internal coordinates taken from checkpoint file:
 Pyrrole-3-N2+-UB3LYP-aug-cc-pVDZ-Singlet.chk
 Charge =  1 Multiplicity = 1

                         Standard orientation:
 ---------------------------------------------------------------------
 Center     Atomic      Atomic             Coordinates (Angstroms)
 Number     Number       Type             X           Y           Z
 ---------------------------------------------------------------------
      1          7           0        1.702218   -0.010693   -0.000083
      2          7           0        2.820105   -0.003018    0.000082
      3          6           0        0.353097    0.016734   -0.000192
      4          6           0       -0.476247    1.194529    0.000169
      5          1           0       -0.148307    2.227923    0.000195
      6          6           0       -1.758500    0.718818   -0.000143
      7          1           0       -2.702968    1.251371   -0.000205
      8          7           0       -1.717504   -0.672171    0.000131
      9          1           0       -2.538220   -1.269259    0.000081
     10          6           0       -0.459217   -1.133764   -0.000001
     11          1           0       -0.199034   -2.186767    0.000017
 ---------------------------------------------------------------------

 SCF Done:  E(UB3LYP) =  -318.816022539     A.U. after    2 cycles

 The electronic state is 1-A.
 Alpha  occ. eigenvalues --  -14.72351 -14.68085 -14.60624 -10.46929 -10.45620
 Alpha  occ. eigenvalues --  -10.42165 -10.40021  -1.37306  -1.21142  -1.08790
 Alpha  occ. eigenvalues --   -0.97295  -0.92469  -0.81176  -0.77007  -0.73378
 Alpha  occ. eigenvalues --   -0.72767  -0.71005  -0.68416  -0.64192  -0.63111
 Alpha  occ. eigenvalues --   -0.63012  -0.60425  -0.48612  -0.44399
 Alpha virt. eigenvalues --   -0.28258  -0.28011  -0.17952  -0.15581  -0.13614
 Alpha virt. eigenvalues --   -0.12575  -0.11529  -0.10443  -0.09915  -0.09503
 Alpha virt. eigenvalues --   -0.09355  -0.05642  -0.05133  -0.04888  -0.04307

  Beta  occ. eigenvalues --  -14.72351 -14.68085 -14.60624 -10.46929 -10.45620
  Beta  occ. eigenvalues --  -10.42165 -10.40021  -1.37306  -1.21142  -1.08790
  Beta  occ. eigenvalues --   -0.97295  -0.92469  -0.81176  -0.77007  -0.73378
  Beta  occ. eigenvalues --   -0.72767  -0.71005  -0.68416  -0.64192  -0.63111
  Beta  occ. eigenvalues --   -0.63012  -0.60425  -0.48612  -0.44399
  Beta virt. eigenvalues --   -0.28258  -0.28011  -0.17952  -0.15581  -0.13614
  Beta virt. eigenvalues --   -0.12575  -0.11529  -0.10443  -0.09915  -0.09503
  Beta virt. eigenvalues --   -0.09355  -0.05642  -0.05133  -0.04888  -0.04307

 Mulliken atomic charges:
              1
     1  N    0.489955
     2  N   -0.489325
     3  C    0.304794
     4  C    1.737995
     5  H   -0.605241
     6  C    0.094227
     7  H   -0.457742
     8  N   -0.113655
     9  H   -0.101179
    10  C    0.657550
    11  H   -0.517381
 Sum of Mulliken atomic charges =   1.00000

 Dipole moment (field-independent basis, Debye):
    X=             -1.5803    Y=             -1.2982    Z=             -0.0001  Tot=              2.0451
 Quadrupole moment (field-independent basis, Debye-Ang):
   XX=            -17.8317   YY=            -26.5567   ZZ=            -39.6602
   XY=              2.2763   XZ=              0.0002   YZ=              0.0000

  Exact polarizability: 101.035   0.959  59.836   0.002   0.000  35.460
 Approx polarizability: 197.594   8.795  97.871   0.006   0.001  53.047

                     1                      2                      3
                     A                      A                      A
 Frequencies --   170.5091               187.7610               513.9650
 Red. masses --     6.4987                 6.3478                10.1935
 Frc consts  --     0.1113                 0.1319                 1.5865
 IR Inten    --     1.2255                 0.2832                 0.4257

                     4                      5                      6
                     A                      A                      A
 Frequencies --   550.9241               571.5339               599.0175
 Red. masses --     7.9379                 8.3788                 3.1827
 Frc consts  --     1.4195                 1.6126                 0.6729
 IR Inten    --     0.1373                 3.5164                18.1216

                     7                      8                      9
                     A                      A                      A
 Frequencies --   608.9903               701.1038               742.0713
 Red. masses --     3.4105                 1.2347                 1.1743
 Frc consts  --     0.7452                 0.3576                 0.3810
 IR Inten    --     8.0741                44.2577               103.3915

                    10                     11                     12
                     A                      A                      A
 Frequencies --   851.9013               888.0099               888.6237
 Red. masses --     1.3871                 5.1869                 1.3428
 Frc consts  --     0.5931                 2.4099                 0.6247
 IR Inten    --    10.4615                 0.3020                 0.0031

                    13                     14                     15
                     A                      A                      A
 Frequencies --   960.8542              1060.1788              1110.4574
 Red. masses --     3.3771                 2.1196                 1.2494
 Frc consts  --     1.8370                 1.4037                 0.9078
 IR Inten    --    15.0864                15.1317                 6.1925

                    16                     17                     18
                     A                      A                      A
 Frequencies --  1158.0747              1270.2521              1343.2640
 Red. masses --     1.3255                 1.6500                 3.2415
 Frc consts  --     1.0474                 1.5686                 3.4460
 IR Inten    --    42.8721                15.5003                70.3330

                    19                     20                     21
                     A                      A                      A
 Frequencies --  1387.3349              1452.2472              1515.4923
 Red. masses --     4.7692                 3.9457                 3.1548
 Frc consts  --     5.4083                 4.9030                 4.2690
 IR Inten    --     5.1036                75.0078                81.7160

                    22                     23                     24
                     A                      A                      A
 Frequencies --  1584.3536              2323.6668              3272.2675
 Red. masses --     3.2226                13.9483                 1.0938
 Frc consts  --     4.7660                44.3730                 6.9005
 IR Inten    --    12.8736               306.8576                19.2879

                    25                     26                     27
                     A                      A                      A
 Frequencies --  3277.1317              3288.7823              3595.2885
 Red. masses --     1.1017                 1.1091                 1.0830
 Frc consts  --     6.9708                 7.0676                 8.2483
 IR Inten    --    39.8776                16.4338               213.7410

 - Thermochemistry -
 -------------------
 Temperature   298.150 Kelvin.  Pressure   1.00000 Atm.
 Atom     1 has atomic number  7 and mass  14.00307

 Molecular mass:    94.04052 amu.
 Principal axes and moments of inertia in atomic units:
                           1         2         3
     Eigenvalues --   207.49219 895.244981102.73716
           X            1.00000  -0.00031   0.00000
           Y            0.00031   1.00000   0.00000
           Z            0.00000   0.00000   1.00000
 This molecule is an asymmetric top.
 Rotational symmetry number  1.
 Rotational temperatures (Kelvin)      0.41743     0.09675     0.07854
 Rotational constants (GHZ):           8.69788     2.01592     1.63660
 Zero-point vibrational energy     214574.5 (Joules/Mol)
                                   51.28454 (Kcal/Mol)
 Warning -- explicit consideration of   7 degrees of freedom as
           vibrations may cause significant error
 Vibrational temperatures:    245.32   270.15   739.48   792.66   822.31
          (Kelvin)            861.85   876.20  1008.73  1067.67  1225.69
                             1277.65  1278.53  1382.45  1525.36  1597.70
                             1666.21  1827.61  1932.65  1996.06  2089.46
                             2180.45  2279.53  3343.23  4708.06  4715.06
                             4731.82  5172.81

 Zero-point correction=                           0.081727 (Hartree/Particle)
 Thermal correction to Energy=                    0.087190
 Thermal correction to Enthalpy=                  0.088134
 Thermal correction to Gibbs Free Energy=         0.052494
 Sum of electronic and zero-point Energies=           -318.734295
 Sum of electronic and thermal Energies=              -318.728833
 Sum of electronic and thermal Enthalpies=            -318.727889
 Sum of electronic and thermal Free Energies=         -318.763529

                     E (Thermal)             CV                S
                      KCal/Mol        Cal/Mol-Kelvin    Cal/Mol-Kelvin
 Total                   54.712             20.236             75.011
 Electronic               0.000              0.000              0.000
 Translational            0.889              2.981             39.535
 Rotational               0.889              2.981             26.818
 Vibrational             52.935             14.275              8.658
 Vibration     1          0.626              1.879              2.430
 Vibration     2          0.632              1.857              2.250
 Vibration     3          0.869              1.219              0.624
 Vibration     4          0.906              1.138              0.542
 Vibration     5          0.928              1.093              0.501
 Vibration     6          0.957              1.034              0.451
 Vibration     7          0.968              1.013              0.434

 Optimization completed.
    -- Stationary point found.
 Normal termination of Gaussian 09 at Tue Mar  6 11:31:17 2018.
