 Gaussian 09, Revision B.01,
 Gaussian 09:  EM64L-G09RevB.01 12-Aug-2010

 -------------------------------------------------
 #p Temperature=298.15 opt freq UB3LYP/aug-cc-pVDZ
 -------------------------------------------------

 -----------------------------------
 Pyrrole-3-UB3LYP-aug-cc-pVDZ-Duplet
 -----------------------------------
 Symbolic Z-matrix:
 Charge =  0 Multiplicity = 2

 SCF Done:  E(UB3LYP) =  -209.490799765     A.U. after   16 cycles
 SCF Done:  E(UB3LYP) =  -209.499509498     A.U. after   17 cycles
 SCF Done:  E(UB3LYP) =  -209.500158133     A.U. after   17 cycles
 SCF Done:  E(UB3LYP) =  -209.500179203     A.U. after   13 cycles
 SCF Done:  E(UB3LYP) =  -209.500208843     A.U. after   13 cycles
 SCF Done:  E(UB3LYP) =  -209.500216867     A.U. after   10 cycles
 Optimization completed.
    -- Stationary point found.
 Normal termination of Gaussian 09 at Tue Mar  6 18:07:57 2018.

 ----------------------------------------------------------------------
 #P Geom=AllCheck Guess=TCheck SCRF=Check GenChk UB3LYP/Aug-CC-pVDZ Fre
 q
 ----------------------------------------------------------------------

 Pyrrole-3-UB3LYP-aug-cc-pVDZ-Duplet
 -----------------------------------
 Redundant internal coordinates taken from checkpoint file:
 Pyrrole-3-UB3LYP-aug-cc-pVDZ-Duplet.chk
 Charge =  0 Multiplicity = 2

                         Standard orientation:
 ---------------------------------------------------------------------
 Center     Atomic      Atomic             Coordinates (Angstroms)
 Number     Number       Type             X           Y           Z
 ---------------------------------------------------------------------
      1          6           0        0.055816   -1.247864    0.000323
      2          6           0        1.190903   -0.403615    0.000054
      3          1           0        2.240001   -0.678487   -0.000536
      4          6           0        0.676762    0.887293    0.000062
      5          1           0        1.187338    1.844790   -0.000093
      6          7           0       -0.696682    0.811713   -0.000580
      7          1           0       -1.317017    1.607706    0.002927
      8          6           0       -1.104106   -0.512786   -0.000045
      9          1           0       -2.149800   -0.794172   -0.000602
 ---------------------------------------------------------------------

 SCF Done:  E(UB3LYP) =  -209.500216867     A.U. after    1 cycles

 The electronic state is 2-A.
 Alpha  occ. eigenvalues --  -14.38814 -10.21892 -10.21556 -10.20549 -10.18429
 Alpha  occ. eigenvalues --   -0.98780  -0.78667  -0.73132  -0.59602  -0.56011
 Alpha  occ. eigenvalues --   -0.54742  -0.43841  -0.42678  -0.41633  -0.40054
 Alpha  occ. eigenvalues --   -0.26902  -0.26021  -0.22594
 Alpha virt. eigenvalues --   -0.01570   0.00889   0.01269   0.01397   0.03037
 Alpha virt. eigenvalues --    0.04730   0.04995   0.05709   0.06546   0.08572
 Alpha virt. eigenvalues --    0.08734   0.08998   0.09520   0.09984   0.10367

  Beta  occ. eigenvalues --  -14.38734 -10.21796 -10.21553 -10.18961 -10.18387
  Beta  occ. eigenvalues --   -0.98371  -0.77461  -0.72562  -0.59199  -0.55391
  Beta  occ. eigenvalues --   -0.53115  -0.43497  -0.42222  -0.41469  -0.39112
  Beta  occ. eigenvalues --   -0.25234  -0.22317
  Beta virt. eigenvalues --   -0.10153  -0.01493   0.00893   0.01347   0.01641
  Beta virt. eigenvalues --    0.03037   0.05218   0.05232   0.06630   0.06635
  Beta virt. eigenvalues --    0.08708   0.08722   0.09253   0.09551   0.10030

 Mulliken atomic charges:
              1
     1  C   -0.312697
     2  C    1.122611
     3  H   -0.492439
     4  C    0.332364
     5  H   -0.534537
     6  N   -0.014368
     7  H   -0.186994
     8  C    0.557485
     9  H   -0.471424
 Sum of Mulliken atomic charges =   0.00000

 Dipole moment (field-independent basis, Debye):
    X=             -1.0839    Y=              2.2469    Z=              0.0030  Tot=              2.4947
 Quadrupole moment (field-independent basis, Debye-Ang):
   XX=            -24.7316   YY=            -27.5797   ZZ=            -33.4648
   XY=             -1.2963   XZ=             -0.0080   YZ=              0.0116

  Exact polarizability:  63.251   1.623  59.653   0.000  -0.005  38.953
 Approx polarizability:  99.710   0.809  96.374   0.006  -0.013  54.438

                     1                      2                      3
                     A                      A                      A
 Frequencies --   473.0043               531.2626               635.5777
 Red. masses --     1.4122                 3.0981                 2.2555
 Frc consts  --     0.1862                 0.5152                 0.5368
 IR Inten    --    51.5857                22.3694                 0.8523

                     4                      5                      6
                     A                      A                      A
 Frequencies --   657.8570               743.8424               824.8826
 Red. masses --     1.4520                 1.2583                 1.2857
 Frc consts  --     0.3702                 0.4102                 0.5154
 IR Inten    --    25.1285                97.6779                 0.5323

                     7                      8                      9
                     A                      A                      A
 Frequencies --   854.9580               881.7746              1030.2062
 Red. masses --     5.9171                 4.5791                 1.4635
 Frc consts  --     2.5483                 2.0977                 0.9152
 IR Inten    --     3.0702                 2.4066                38.6332

                    10                     11                     12
                     A                      A                      A
 Frequencies --  1060.1716              1143.0299              1173.6437
 Red. masses --     1.5541                 1.3034                 5.0904
 Frc consts  --     1.0291                 1.0033                 4.1312
 IR Inten    --    17.2087                 3.7313                 0.2965

                    13                     14                     15
                     A                      A                      A
 Frequencies --  1232.6737              1377.6594              1431.6902
 Red. masses --     1.4936                 3.6710                 3.5418
 Frc consts  --     1.3372                 4.1051                 4.2774
 IR Inten    --     6.7760                 0.8315                 6.0190

                    16                     17                     18
                     A                      A                      A
 Frequencies --  1471.1668              1530.1266              3250.0112
 Red. masses --     3.1690                 2.9108                 1.0901
 Frc consts  --     4.0410                 4.0153                 6.7838
 IR Inten    --    14.8125                 1.6776                 0.1163

                    19                     20                     21
                     A                      A                      A
 Frequencies --  3268.5009              3280.2820              3650.9345
 Red. masses --     1.1029                 1.0978                 1.0809
 Frc consts  --     6.9420                 6.9599                 8.4887
 IR Inten    --     0.8815                 0.5484                59.6888

 - Thermochemistry -
 -------------------
 Temperature   298.150 Kelvin.  Pressure   1.00000 Atm.
 Atom     1 has atomic number  6 and mass  12.00000

 Molecular mass:    66.03437 amu.
 Principal axes and moments of inertia in atomic units:
                           1         2         3
     Eigenvalues --   176.89974 203.08795 379.98759
           X            0.99937   0.03536  -0.00007
           Y           -0.03536   0.99937   0.00011
           Z            0.00007  -0.00011   1.00000
 This molecule is an asymmetric top.
 Rotational symmetry number  1.
 Rotational temperatures (Kelvin)      0.48962     0.42648     0.22794
 Rotational constants (GHZ):          10.20206     8.88650     4.74947
 Zero-point vibrational energy     182450.0 (Joules/Mol)
                                   43.60659 (Kcal/Mol)
 Warning -- explicit consideration of   2 degrees of freedom as
           vibrations may cause significant error
 Vibrational temperatures:    680.55   764.37   914.45   946.51  1070.22
          (Kelvin)           1186.82  1230.09  1268.68  1482.24  1525.35
                             1644.56  1688.61  1773.54  1982.14  2059.88
                             2116.68  2201.51  4676.04  4702.64  4719.59
                             5252.87

 Zero-point correction=                           0.069492 (Hartree/Particle)
 Thermal correction to Energy=                    0.073474
 Thermal correction to Enthalpy=                  0.074418
 Thermal correction to Gibbs Free Energy=         0.042506
 Sum of electronic and zero-point Energies=           -209.430725
 Sum of electronic and thermal Energies=              -209.426743
 Sum of electronic and thermal Enthalpies=            -209.425799
 Sum of electronic and thermal Free Energies=         -209.457711

                     E (Thermal)             CV                S
                      KCal/Mol        Cal/Mol-Kelvin    Cal/Mol-Kelvin
 Total                   46.105             14.443             67.165
 Electronic               0.000              0.000              1.377
 Translational            0.889              2.981             38.481
 Rotational               0.889              2.981             24.127
 Vibrational             44.328              8.481              3.179
 Vibration     1          0.830              1.310              0.729
 Vibration     2          0.886              1.181              0.584

 Normal termination of Gaussian 09 at Tue Mar  6 18:09:30 2018.
