 Gaussian 09, Revision B.01,
 Gaussian 09:  EM64L-G09RevB.01 12-Aug-2010

 -------------------------------------------------
 #p Temperature=298.15 opt freq UB3LYP/aug-cc-pVDZ
 -------------------------------------------------

 ----------------------------------------
 Pyrrole-2-N2+-UB3LYP-aug-cc-pVDZ-Triplet
 ----------------------------------------
 Symbolic Z-matrix:
 Charge =  1 Multiplicity = 3

 SCF Done:  E(UB3LYP) =  -318.699585227     A.U. after   22 cycles
 SCF Done:  E(UB3LYP) =  -318.712381303     A.U. after   21 cycles
 SCF Done:  E(UB3LYP) =  -318.713823874     A.U. after   21 cycles
 SCF Done:  E(UB3LYP) =  -318.713866710     A.U. after   23 cycles
 SCF Done:  E(UB3LYP) =  -318.714263401     A.U. after   23 cycles
 SCF Done:  E(UB3LYP) =  -318.714405790     A.U. after   18 cycles
 SCF Done:  E(UB3LYP) =  -318.715224261     A.U. after   21 cycles
 SCF Done:  E(UB3LYP) =  -318.714743175     A.U. after   20 cycles
 SCF Done:  E(UB3LYP) =  -318.715616917     A.U. after   20 cycles
 SCF Done:  E(UB3LYP) =  -318.716683948     A.U. after   20 cycles
 SCF Done:  E(UB3LYP) =  -318.740472226     A.U. after   20 cycles
 SCF Done:  E(UB3LYP) =  -318.740899389     A.U. after   21 cycles
 SCF Done:  E(UB3LYP) =  -318.741267803     A.U. after   16 cycles
 SCF Done:  E(UB3LYP) =  -318.741514795     A.U. after   17 cycles
 SCF Done:  E(UB3LYP) =  -318.741604735     A.U. after   16 cycles
 SCF Done:  E(UB3LYP) =  -318.741648695     A.U. after   21 cycles
 SCF Done:  E(UB3LYP) =  -318.741662500     A.U. after   23 cycles
 SCF Done:  E(UB3LYP) =  -318.741666070     A.U. after   14 cycles
 SCF Done:  E(UB3LYP) =  -318.741666338     A.U. after   23 cycles
 Optimization completed.
    -- Stationary point found.
 Normal termination of Gaussian 09 at Fri Jan 21 12:52:44 2005.

 ----------------------------------------------------------------------
 #P Geom=AllCheck Guess=TCheck SCRF=Check GenChk UB3LYP/Aug-CC-pVDZ Fre
 q
 ----------------------------------------------------------------------

 Pyrrole-2-N2+-UB3LYP-aug-cc-pVDZ-Triplet
 ----------------------------------------
 Redundant internal coordinates taken from checkpoint file:
 Pyrrole-2-N2+-UB3LYP-aug-cc-pVDZ-Triplet.chk
 Charge =  1 Multiplicity = 3

                         Standard orientation:
 ---------------------------------------------------------------------
 Center     Atomic      Atomic             Coordinates (Angstroms)
 Number     Number       Type             X           Y           Z
 ---------------------------------------------------------------------
      1          7           0       -1.705688   -0.550708   -0.000160
      2          7           0       -2.534047    0.320381    0.000268
      3          6           0       -0.339973   -0.263816   -0.000101
      4          6           0        0.736734   -1.204515   -0.000045
      5          1           0        0.608955   -2.283235   -0.000008
      6          6           0        1.901484   -0.472289    0.000088
      7          1           0        2.923724   -0.839994    0.000402
      8          6           0        1.532041    0.924649    0.000058
      9          1           0        2.172357    1.805288    0.000074
     10          7           0        0.192528    1.021194   -0.000120
     11          1           0       -0.356299    1.877705   -0.000386
 ---------------------------------------------------------------------

 SCF Done:  E(UB3LYP) =  -318.741666338     A.U. after    1 cycles

 The electronic state is 3-A.
 Alpha  occ. eigenvalues --  -14.63711 -14.62629 -14.61654 -10.53312 -10.50573
 Alpha  occ. eigenvalues --  -10.43767 -10.43430  -1.29471  -1.24223  -1.04376
 Alpha  occ. eigenvalues --   -1.01885  -0.90437  -0.84292  -0.82929  -0.74141
 Alpha  occ. eigenvalues --   -0.69914  -0.69242  -0.67311  -0.65767  -0.63484
 Alpha  occ. eigenvalues --   -0.62879  -0.60145  -0.50942  -0.48929  -0.42545
 Alpha virt. eigenvalues --   -0.29292  -0.20610  -0.16896  -0.16585  -0.13376
 Alpha virt. eigenvalues --   -0.12991  -0.11373  -0.10581  -0.10182  -0.08084
 Alpha virt. eigenvalues --   -0.05908  -0.05775  -0.05467  -0.04649  -0.04039

  Beta  occ. eigenvalues --  -14.63856 -14.62468 -14.59538 -10.52205 -10.49950
  Beta  occ. eigenvalues --  -10.43587 -10.43479  -1.27565  -1.23185  -1.03824
  Beta  occ. eigenvalues --   -0.99202  -0.88526  -0.83980  -0.82226  -0.72983
  Beta  occ. eigenvalues --   -0.68690  -0.67475  -0.64944  -0.63109  -0.62941
  Beta  occ. eigenvalues --   -0.60738  -0.56509  -0.50510
  Beta virt. eigenvalues --   -0.38790  -0.26964  -0.25785  -0.17971  -0.16375
  Beta virt. eigenvalues --   -0.14226  -0.13016  -0.12924  -0.11256  -0.10340
  Beta virt. eigenvalues --   -0.09993  -0.07822  -0.05751  -0.05492  -0.05270

 Mulliken atomic charges:
              1
     1  N    0.119259
     2  N   -0.395026
     3  C   -0.010386
     4  C    1.425389
     5  H   -0.523478
     6  C    0.982092
     7  H   -0.468362
     8  C    0.311763
     9  H   -0.411474
    10  N    0.073895
    11  H   -0.103671
 Sum of Mulliken atomic charges =   1.00000

 Dipole moment (field-independent basis, Debye):
    X=              4.3679    Y=              1.7216    Z=             -0.0003  Tot=              4.6949
 Quadrupole moment (field-independent basis, Debye-Ang):
   XX=            -26.5557   YY=            -25.6485   ZZ=            -38.4342
   XY=              0.8132   XZ=              0.0020   YZ=             -0.0019

  Exact polarizability:  92.941  -0.166  60.939   0.000   0.001  34.892
 Approx polarizability: 151.102  -2.305 101.183  -0.001   0.004  53.277

                     1                      2                      3
                     A                      A                      A
 Frequencies --   108.7891               229.8306               245.5735
 Red. masses --     8.0817                 6.4888                 5.8240
 Frc consts  --     0.0564                 0.2019                 0.2069
 IR Inten    --     0.5375                 3.8945                 0.0919

                     4                      5                      6
                     A                      A                      A
 Frequencies --   484.3544               501.5941               631.4913
 Red. masses --     7.0756                 2.3751                 4.0319
 Frc consts  --     0.9780                 0.3521                 0.9473
 IR Inten    --     3.1821                14.6902                 0.5987

                     7                      8                      9
                     A                      A                      A
 Frequencies --   660.4734               673.9624               784.3824
 Red. masses --     9.2415                 1.1644                 1.2836
 Frc consts  --     2.3752                 0.3116                 0.4653
 IR Inten    --     3.8258                64.0516                83.1271

                    10                     11                     12
                     A                      A                      A
 Frequencies --   787.1319               917.0427               935.8151
 Red. masses --     7.4297                 1.4333                 3.1869
 Frc consts  --     2.7122                 0.7102                 1.6444
 IR Inten    --    23.6636                 3.2778                 7.6900

                    13                     14                     15
                     A                      A                      A
 Frequencies --   954.0722              1024.2157              1058.9633
 Red. masses --     1.4220                 2.4690                 2.1705
 Frc consts  --     0.7626                 1.5260                 1.4341
 IR Inten    --     0.4285                 4.2588                19.3059

                    16                     17                     18
                     A                      A                      A
 Frequencies --  1087.8941              1200.7695              1276.4915
 Red. masses --     1.2026                 1.8165                 4.3950
 Frc consts  --     0.8386                 1.5431                 4.2194
 IR Inten    --     9.8422                33.4022                 2.2800

                    19                     20                     21
                     A                      A                      A
 Frequencies --  1321.3182              1454.4736              1469.5238
 Red. masses --     1.6924                 4.1738                 1.9940
 Frc consts  --     1.7409                 5.2023                 2.5371
 IR Inten    --    20.7685                59.1000               128.3522

                    22                     23                     24
                     A                      A                      A
 Frequencies --  1533.9737              1680.5341              3242.8836
 Red. masses --     3.9896                13.0107                 1.0982
 Frc consts  --     5.5312                21.6494                 6.8047
 IR Inten    --     4.8326                21.3252                17.0477

                    25                     26                     27
                     A                      A                      A
 Frequencies --  3257.9728              3270.8498              3564.2555
 Red. masses --     1.0955                 1.1079                 1.0836
 Frc consts  --     6.8508                 6.9834                 8.1105
 IR Inten    --    25.0465                31.5330               203.1778

 - Thermochemistry -
 -------------------
 Temperature   298.150 Kelvin.  Pressure   1.00000 Atm.
 Atom     1 has atomic number  7 and mass  14.00307

 Molecular mass:    94.04052 amu.
 Principal axes and moments of inertia in atomic units:
                           1         2         3
     Eigenvalues --   229.50075 800.654501030.15524
           X            0.99999  -0.00349   0.00001
           Y            0.00349   0.99999  -0.00001
           Z           -0.00001   0.00001   1.00000
 This molecule is an asymmetric top.
 Rotational symmetry number  1.
 Rotational temperatures (Kelvin)      0.37740     0.10818     0.08408
 Rotational constants (GHZ):           7.86377     2.25408     1.75191
 Zero-point vibrational energy     205510.3 (Joules/Mol)
                                   49.11813 (Kcal/Mol)
 Warning -- explicit consideration of   5 degrees of freedom as
           vibrations may cause significant error
 Vibrational temperatures:    156.52   330.67   353.33   696.88   721.68
          (Kelvin)            908.57   950.27   969.68  1128.55  1132.51
                             1319.42  1346.43  1372.70  1473.62  1523.61
                             1565.24  1727.64  1836.58  1901.08  2092.66
                             2114.31  2207.04  2417.91  4665.78  4687.49
                             4706.02  5128.16

 Zero-point correction=                           0.078275 (Hartree/Particle)
 Thermal correction to Energy=                    0.084142
 Thermal correction to Enthalpy=                  0.085086
 Thermal correction to Gibbs Free Energy=         0.047549
 Sum of electronic and zero-point Energies=           -318.663392
 Sum of electronic and thermal Energies=              -318.657524
 Sum of electronic and thermal Enthalpies=            -318.656580
 Sum of electronic and thermal Free Energies=         -318.694117

                     E (Thermal)             CV                S
                      KCal/Mol        Cal/Mol-Kelvin    Cal/Mol-Kelvin
 Total                   52.800             21.201             79.003
 Electronic               0.000              0.000              2.183
 Translational            0.889              2.981             39.535
 Rotational               0.889              2.981             26.740
 Vibrational             51.023             15.239             10.545
 Vibration     1          0.606              1.942              3.290
 Vibration     2          0.652              1.795              1.880
 Vibration     3          0.660              1.770              1.762
 Vibration     4          0.840              1.285              0.698
 Vibration     5          0.857              1.246              0.654

 Optimization completed.
    -- Stationary point found.
 Normal termination of Gaussian 09 at Fri Jan 21 12:57:13 2005.
