 Gaussian 09, Revision B.01,
 Gaussian 09:  EM64L-G09RevB.01 12-Aug-2010

 -------------------------------------------------
 #p Temperature=298.15 opt freq UB3LYP/aug-cc-pVDZ
 -------------------------------------------------

 --------------------------------------
 Pyrrole-3-N2-UB3LYP-aug-cc-pVDZ-Duplet
 --------------------------------------
 Symbolic Z-matrix:
 Charge =  0 Multiplicity = 2

 SCF Done:  E(UB3LYP) =  -319.010379882     A.U. after   23 cycles
 SCF Done:  E(UB3LYP) =  -319.023659322     A.U. after   20 cycles
 SCF Done:  E(UB3LYP) =  -319.024667059     A.U. after   19 cycles
 SCF Done:  E(UB3LYP) =  -319.024716346     A.U. after   18 cycles
 SCF Done:  E(UB3LYP) =  -319.024705063     A.U. after   24 cycles
 SCF Done:  E(UB3LYP) =  -319.024730990     A.U. after   18 cycles
 SCF Done:  E(UB3LYP) =  -319.024732106     A.U. after   22 cycles
 SCF Done:  E(UB3LYP) =  -319.024735806     A.U. after   22 cycles
 SCF Done:  E(UB3LYP) =  -319.027027727     A.U. after   22 cycles
 SCF Done:  E(UB3LYP) =  -319.035355814     A.U. after   20 cycles
 SCF Done:  E(UB3LYP) =  -319.051545179     A.U. after   19 cycles
 SCF Done:  E(UB3LYP) =  -319.040884400     A.U. after   19 cycles
 SCF Done:  E(UB3LYP) =  -319.052058656     A.U. after   19 cycles
 SCF Done:  E(UB3LYP) =  -319.052886775     A.U. after   16 cycles
 SCF Done:  E(UB3LYP) =  -319.053036169     A.U. after   19 cycles
 SCF Done:  E(UB3LYP) =  -319.053163137     A.U. after   19 cycles
 SCF Done:  E(UB3LYP) =  -319.053188988     A.U. after   13 cycles
 SCF Done:  E(UB3LYP) =  -319.053191368     A.U. after   23 cycles
 SCF Done:  E(UB3LYP) =  -319.053191795     A.U. after   11 cycles
 Optimization completed.
    -- Stationary point found.
 Normal termination of Gaussian 09 at Tue Mar  6 18:01:29 2018.

 ----------------------------------------------------------------------
 #P Geom=AllCheck Guess=TCheck SCRF=Check GenChk UB3LYP/Aug-CC-pVDZ Fre
 q
 ----------------------------------------------------------------------

 Pyrrole-3-N2-UB3LYP-aug-cc-pVDZ-Duplet
 --------------------------------------
 Redundant internal coordinates taken from checkpoint file:
 Pyrrole-3-N2-UB3LYP-aug-cc-pVDZ-Duplet.chk
 Charge =  0 Multiplicity = 2

                         Standard orientation:
 ---------------------------------------------------------------------
 Center     Atomic      Atomic             Coordinates (Angstroms)
 Number     Number       Type             X           Y           Z
 ---------------------------------------------------------------------
      1          7           0       -1.768279    0.478692   -0.000297
      2          7           0       -2.641458   -0.328183    0.000336
      3          6           0       -0.369945    0.189716   -0.000103
      4          6           0        0.643870    1.192628    0.000001
      5          1           0        0.486179    2.265699    0.000124
      6          6           0        1.853654    0.531390    0.000082
      7          1           0        2.870212    0.907001    0.000357
      8          7           0        1.592710   -0.824550    0.000070
      9          1           0        2.297874   -1.546766   -0.000132
     10          6           0        0.245864   -1.056048   -0.000138
     11          1           0       -0.175735   -2.053764   -0.000166
 ---------------------------------------------------------------------

 SCF Done:  E(UB3LYP) =  -319.053191795     A.U. after    1 cycles

 The electronic state is 2-A.
 Alpha  occ. eigenvalues --  -14.40945 -14.40886 -14.38275 -10.23731 -10.23263
 Alpha  occ. eigenvalues --  -10.23225 -10.19758  -1.05933  -1.00812  -0.81929
 Alpha  occ. eigenvalues --   -0.75720  -0.69556  -0.60889  -0.57348  -0.53632
 Alpha  occ. eigenvalues --   -0.45750  -0.45343  -0.45071  -0.44443  -0.42844
 Alpha  occ. eigenvalues --   -0.41272  -0.37844  -0.27394  -0.24330  -0.19678
 Alpha virt. eigenvalues --   -0.05789  -0.02474   0.00299   0.00602   0.01079
 Alpha virt. eigenvalues --    0.02756   0.03928   0.04089   0.05784   0.06837
 Alpha virt. eigenvalues --    0.07412   0.08081   0.08093   0.08734   0.08984

  Beta  occ. eigenvalues --  -14.40953 -14.40496 -14.36707 -10.23739 -10.23216
  Beta  occ. eigenvalues --  -10.22919 -10.19780  -1.04161  -1.00728  -0.81327
  Beta  occ. eigenvalues --   -0.75484  -0.68171  -0.60745  -0.57277  -0.52661
  Beta  occ. eigenvalues --   -0.45274  -0.44848  -0.43982  -0.42776  -0.41256
  Beta  occ. eigenvalues --   -0.40717  -0.34871  -0.27126  -0.24207
  Beta virt. eigenvalues --   -0.05528  -0.04786  -0.02365   0.00295   0.00656
  Beta virt. eigenvalues --    0.01157   0.02789   0.03949   0.04126   0.05889
  Beta virt. eigenvalues --    0.07138   0.07446   0.08062   0.08168   0.08734

 Mulliken atomic charges:
              1
     1  N    0.107896
     2  N   -0.611783
     3  C    0.283204
     4  C    1.486041
     5  H   -0.650004
     6  C    0.049838
     7  H   -0.544265
     8  N   -0.087011
     9  H   -0.174083
    10  C    0.731664
    11  H   -0.591496
 Sum of Mulliken atomic charges =   0.00000

 Dipole moment (field-independent basis, Debye):
    X=              4.8737    Y=             -1.3626    Z=             -0.0002  Tot=              5.0606
 Quadrupole moment (field-independent basis, Debye-Ang):
   XX=            -42.4950   YY=            -35.3312   ZZ=            -42.9908
   XY=             -3.0365   XZ=              0.0011   YZ=              0.0024

  Exact polarizability:  97.838   3.813  71.520  -0.005   0.001  43.131
 Approx polarizability: 152.847   7.308 118.358  -0.006  -0.004  64.264

                     1                      2                      3
                     A                      A                      A
 Frequencies --   123.8338               233.4535               286.6823
 Red. masses --     7.9153                 6.1441                 7.3850
 Frc consts  --     0.0715                 0.1973                 0.3576
 IR Inten    --     0.1974                 3.1186                 1.7051

                     4                      5                      6
                     A                      A                      A
 Frequencies --   484.8029               555.4237               629.7076
 Red. masses --     7.2206                 1.6281                 2.5931
 Frc consts  --     0.9999                 0.2959                 0.6058
 IR Inten    --     5.3685                79.9863                 2.3683

                     7                      8                      9
                     A                      A                      A
 Frequencies --   645.1516               650.2198               707.7488
 Red. masses --     1.9213                 9.2104                 1.2907
 Frc consts  --     0.4711                 2.2943                 0.3809
 IR Inten    --     5.7158                27.4547                39.0039

                    10                     11                     12
                     A                      A                      A
 Frequencies --   802.0683               854.1225               895.0999
 Red. masses --     1.4484                 1.3272                 4.8127
 Frc consts  --     0.5490                 0.5705                 2.2719
 IR Inten    --    51.4784                 4.0748                 1.9713

                    13                     14                     15
                     A                      A                      A
 Frequencies --   965.3252              1048.1808              1084.5367
 Red. masses --     3.5183                 1.5428                 1.4290
 Frc consts  --     1.9317                 0.9987                 0.9903
 IR Inten    --     4.4687                38.6607                14.7073

                    16                     17                     18
                     A                      A                      A
 Frequencies --  1144.9396              1257.0038              1276.6361
 Red. masses --     1.4189                 1.9234                 2.8610
 Frc consts  --     1.0959                 1.7906                 2.7472
 IR Inten    --     2.8695                 3.6100                 9.4008

                    19                     20                     21
                     A                      A                      A
 Frequencies --  1424.7809              1449.1380              1503.9872
 Red. masses --     6.2132                 3.4283                 3.1962
 Frc consts  --     7.4312                 4.2418                 4.2596
 IR Inten    --    15.0400                18.8027                16.7898

                    22                     23                     24
                     A                      A                      A
 Frequencies --  1563.1981              1827.1425              3258.8194
 Red. masses --     3.0969                13.8109                 1.0916
 Frc consts  --     4.4586                27.1655                 6.8304
 IR Inten    --     3.7973                39.3572                 0.2782

                    25                     26                     27
                     A                      A                      A
 Frequencies --  3278.1727              3282.4278              3650.2218
 Red. masses --     1.1043                 1.0995                 1.0812
 Frc consts  --     6.9921                 6.9797                 8.4879
 IR Inten    --     0.3173                 3.9664                80.1433

 - Thermochemistry -
 -------------------
 Temperature   298.150 Kelvin.  Pressure   1.00000 Atm.
 Atom     1 has atomic number  7 and mass  14.00307

 Molecular mass:    94.04052 amu.
 Principal axes and moments of inertia in atomic units:
                           1         2         3
     Eigenvalues --   218.44409 854.074071072.51813
           X            1.00000   0.00274   0.00000
           Y           -0.00274   1.00000   0.00002
           Z            0.00000  -0.00002   1.00000
 This molecule is an asymmetric top.
 Rotational symmetry number  1.
 Rotational temperatures (Kelvin)      0.39650     0.10141     0.08076
 Rotational constants (GHZ):           8.26180     2.11310     1.68271
 Zero-point vibrational energy     208645.6 (Joules/Mol)
                                   49.86750 (Kcal/Mol)
 Warning -- explicit consideration of   5 degrees of freedom as
           vibrations may cause significant error
 Vibrational temperatures:    178.17   335.89   412.47   697.52   799.13
          (Kelvin)            906.01   928.23   935.52  1018.29  1154.00
                             1228.89  1287.85  1388.89  1508.10  1560.40
                             1647.31  1808.55  1836.79  2049.94  2084.98
                             2163.90  2249.09  2628.85  4688.71  4716.55
                             4722.68  5251.85

 Zero-point correction=                           0.079469 (Hartree/Particle)
 Thermal correction to Energy=                    0.085251
 Thermal correction to Enthalpy=                  0.086195
 Thermal correction to Gibbs Free Energy=         0.049275
 Sum of electronic and zero-point Energies=           -318.973723
 Sum of electronic and thermal Energies=              -318.967941
 Sum of electronic and thermal Enthalpies=            -318.966997
 Sum of electronic and thermal Free Energies=         -319.003917

                     E (Thermal)             CV                S
                      KCal/Mol        Cal/Mol-Kelvin    Cal/Mol-Kelvin
 Total                   53.496             21.115             77.706
 Electronic               0.000              0.000              1.377
 Translational            0.889              2.981             39.535
 Rotational               0.889              2.981             26.795
 Vibrational             51.718             15.153              9.998
 Vibration     1          0.610              1.929              3.040
 Vibration     2          0.654              1.790              1.852
 Vibration     3          0.684              1.698              1.493
 Vibration     4          0.841              1.284              0.697
 Vibration     5          0.911              1.128              0.533

 Optimization completed.
    -- Stationary point found.
 Normal termination of Gaussian 09 at Tue Mar  6 18:06:04 2018.
