 Gaussian 09, Revision B.01,
 Gaussian 09:  EM64L-G09RevB.01 12-Aug-2010

 -------------------------------------------------
 #p Temperature=298.15 opt freq UB3LYP/aug-cc-pVDZ
 -------------------------------------------------

 -------------------------------------
 Pyrrole-2+-UB3LYP-aug-cc-pVDZ-Singlet
 -------------------------------------
 Symbolic Z-matrix:
 Charge =  1 Multiplicity = 1

 SCF Done:  E(UB3LYP) =  -209.139003730     A.U. after   19 cycles
 SCF Done:  E(UB3LYP) =  -209.169507650     A.U. after   15 cycles
 SCF Done:  E(UB3LYP) =  -209.176555610     A.U. after   14 cycles
 SCF Done:  E(UB3LYP) =  -209.177291131     A.U. after   13 cycles
 SCF Done:  E(UB3LYP) =  -209.177690928     A.U. after   15 cycles
 SCF Done:  E(UB3LYP) =  -209.177782814     A.U. after   12 cycles
 SCF Done:  E(UB3LYP) =  -209.177807037     A.U. after   11 cycles
 SCF Done:  E(UB3LYP) =  -209.177813831     A.U. after   11 cycles
 SCF Done:  E(UB3LYP) =  -209.177815234     A.U. after   14 cycles
 Optimization completed.
    -- Stationary point found.
 Normal termination of Gaussian 09 at Tue Mar  6 11:16:48 2018.

 ----------------------------------------------------------------------
 #P Geom=AllCheck Guess=TCheck SCRF=Check GenChk UB3LYP/Aug-CC-pVDZ Fre
 q
 ----------------------------------------------------------------------

 Pyrrole-2+-UB3LYP-aug-cc-pVDZ-Singlet
 -------------------------------------
 Redundant internal coordinates taken from checkpoint file:
 Pyrrole-2+-UB3LYP-aug-cc-pVDZ-Singlet.chk
 Charge =  1 Multiplicity = 1

                         Standard orientation:
 ---------------------------------------------------------------------
 Center     Atomic      Atomic             Coordinates (Angstroms)
 Number     Number       Type             X           Y           Z
 ---------------------------------------------------------------------
      1          6           0        0.018056   -1.112924    0.242800
      2          6           0       -1.188768   -0.469059   -0.105815
      3          1           0       -2.184531   -0.899134   -0.162418
      4          6           0       -0.781735    0.854167    0.000748
      5          1           0       -1.400803    1.728478    0.195432
      6          6           0        0.663555    0.873574   -0.012119
      7          1           0        1.322557    1.689535    0.288257
      8          7           0        1.129031   -0.389506   -0.156839
      9          1           0        2.092907   -0.666882    0.022922
 ---------------------------------------------------------------------

 SCF Done:  E(UB3LYP) =  -209.177815234     A.U. after    1 cycles

 The electronic state is 1-A.
 Alpha  occ. eigenvalues --  -14.64839 -10.52566 -10.51470 -10.45452 -10.44722
 Alpha  occ. eigenvalues --   -1.26290  -1.05411  -0.96559  -0.85189  -0.82106
 Alpha  occ. eigenvalues --   -0.76513  -0.70195  -0.67851  -0.65168  -0.64091
 Alpha  occ. eigenvalues --   -0.51289  -0.48955
 Alpha virt. eigenvalues --   -0.37606  -0.25059  -0.20169  -0.16788  -0.13047
 Alpha virt. eigenvalues --   -0.12336  -0.10718  -0.10492  -0.10229  -0.08890
 Alpha virt. eigenvalues --   -0.06212  -0.05511  -0.04817  -0.04300  -0.03595

  Beta  occ. eigenvalues --  -14.64839 -10.52566 -10.51470 -10.45452 -10.44722
  Beta  occ. eigenvalues --   -1.26290  -1.05411  -0.96559  -0.85189  -0.82106
  Beta  occ. eigenvalues --   -0.76513  -0.70195  -0.67851  -0.65168  -0.64091
  Beta  occ. eigenvalues --   -0.51289  -0.48955
  Beta virt. eigenvalues --   -0.37606  -0.25059  -0.20169  -0.16788  -0.13047
  Beta virt. eigenvalues --   -0.12336  -0.10718  -0.10492  -0.10229  -0.08890
  Beta virt. eigenvalues --   -0.06212  -0.05511  -0.04817  -0.04300  -0.03595

 Mulliken atomic charges:
              1
     1  C   -0.083753
     2  C    0.644426
     3  H   -0.363149
     4  C    1.068114
     5  H   -0.424918
     6  C    0.591280
     7  H   -0.373912
     8  N   -0.002370
     9  H   -0.055718
 Sum of Mulliken atomic charges =   1.00000

 Dipole moment (field-independent basis, Debye):
    X=              1.2730    Y=              1.0690    Z=             -0.0652  Tot=              1.6636
 Quadrupole moment (field-independent basis, Debye-Ang):
   XX=            -13.2314   YY=            -19.8431   ZZ=            -29.0371
   XY=              0.2159   XZ=              0.7604   YZ=              1.9989

  Exact polarizability:  51.879   1.156  59.224   0.581  -2.520  29.202
 Approx polarizability:  84.822   2.568 141.307   0.658  -9.644  45.720

                     1                      2                      3
                     A                      A                      A
 Frequencies --   355.6650               536.0968               574.3156
 Red. masses --     2.2870                 3.4469                 2.0867
 Frc consts  --     0.1704                 0.5837                 0.4055
 IR Inten    --     5.7409                91.2218                 9.7206

                     4                      5                      6
                     A                      A                      A
 Frequencies --   613.5183               771.0193               816.7626
 Red. masses --     2.8777                 1.5150                 2.2815
 Frc consts  --     0.6382                 0.5306                 0.8967
 IR Inten    --    51.5840               150.3687                25.7041

                     7                      8                      9
                     A                      A                      A
 Frequencies --   900.0525               948.0399               967.9764
 Red. masses --     1.4444                 1.7920                 2.3014
 Frc consts  --     0.6894                 0.9489                 1.2705
 IR Inten    --     3.9593                 9.2189                28.4884

                    10                     11                     12
                     A                      A                      A
 Frequencies --  1052.2784              1089.9028              1170.9898
 Red. masses --     2.5532                 1.1733                 1.4155
 Frc consts  --     1.6657                 0.8212                 1.1436
 IR Inten    --    15.1175                 7.6201                19.5406

                    13                     14                     15
                     A                      A                      A
 Frequencies --  1214.1236              1310.7528              1334.8500
 Red. masses --     2.1765                 2.6945                 2.6244
 Frc consts  --     1.8903                 2.7275                 2.7551
 IR Inten    --    10.5772                25.0858                13.8254

                    16                     17                     18
                     A                      A                      A
 Frequencies --  1441.4916              1484.6801              3217.8737
 Red. masses --     1.9292                 3.5318                 1.0966
 Frc consts  --     2.3618                 4.5868                 6.6902
 IR Inten    --   110.2491                 6.2009                19.1851

                    19                     20                     21
                     A                      A                      A
 Frequencies --  3236.1159              3270.1884              3545.4334
 Red. masses --     1.0977                 1.1037                 1.0829
 Frc consts  --     6.7730                 6.9542                 8.0200
 IR Inten    --    28.5357                47.1459               230.6197

 - Thermochemistry -
 -------------------
 Temperature   298.150 Kelvin.  Pressure   1.00000 Atm.
 Atom     1 has atomic number  6 and mass  12.00000

 Molecular mass:    66.03437 amu.
 Principal axes and moments of inertia in atomic units:
                           1         2         3
     Eigenvalues --   164.13684 220.39073 375.17171
           X            0.99970   0.02311   0.00870
           Y           -0.02330   0.99948   0.02217
           Z           -0.00818  -0.02236   0.99972
 This molecule is an asymmetric top.
 Rotational symmetry number  1.
 Rotational temperatures (Kelvin)      0.52769     0.39300     0.23086
 Rotational constants (GHZ):          10.99534     8.18883     4.81044
 Zero-point vibrational energy     178555.4 (Joules/Mol)
                                   42.67576 (Kcal/Mol)
 Warning -- explicit consideration of   4 degrees of freedom as
           vibrations may cause significant error
 Vibrational temperatures:    511.72   771.32   826.31   882.71  1109.32
          (Kelvin)           1175.14  1294.97  1364.02  1392.70  1513.99
                             1568.13  1684.79  1746.85  1885.88  1920.55
                             2073.98  2136.12  4629.80  4656.04  4705.07
                             5101.08

 Zero-point correction=                           0.068008 (Hartree/Particle)
 Thermal correction to Energy=                    0.072146
 Thermal correction to Enthalpy=                  0.073090
 Thermal correction to Gibbs Free Energy=         0.041574
 Sum of electronic and zero-point Energies=           -209.109807
 Sum of electronic and thermal Energies=              -209.105669
 Sum of electronic and thermal Enthalpies=            -209.104725
 Sum of electronic and thermal Free Energies=         -209.136241

                     E (Thermal)             CV                S
                      KCal/Mol        Cal/Mol-Kelvin    Cal/Mol-Kelvin
 Total                   45.272             14.938             66.331
 Electronic               0.000              0.000              0.000
 Translational            0.889              2.981             38.481
 Rotational               0.889              2.981             24.121
 Vibrational             43.495              8.977              3.729
 Vibration     1          0.731              1.564              1.141
 Vibration     2          0.891              1.170              0.574
 Vibration     3          0.931              1.087              0.496
 Vibration     4          0.973              1.003              0.427

 Normal termination of Gaussian 09 at Tue Mar  6 11:18:17 2018.
