 Gaussian 09, Revision B.01,
 Gaussian 09:  EM64L-G09RevB.01 12-Aug-2010

 -------------------------------------------------
 #p Temperature=298.15 opt freq UB3LYP/aug-cc-pVDZ
 -------------------------------------------------

 -------------------------------------
 Pyrrole-3+-UB3LYP-aug-cc-pVDZ-Singlet
 -------------------------------------
 Symbolic Z-matrix:
 Charge =  1 Multiplicity = 1

 SCF Done:  E(UB3LYP) =  -209.136321537     A.U. after   21 cycles
 SCF Done:  E(UB3LYP) =  -209.165224204     A.U. after   14 cycles
 SCF Done:  E(UB3LYP) =  -209.174287224     A.U. after   17 cycles
 SCF Done:  E(UB3LYP) =  -209.175743501     A.U. after   13 cycles
 SCF Done:  E(UB3LYP) =  -209.176246299     A.U. after   12 cycles
 SCF Done:  E(UB3LYP) =  -209.176342027     A.U. after   12 cycles
 SCF Done:  E(UB3LYP) =  -209.176349809     A.U. after   10 cycles
 SCF Done:  E(UB3LYP) =  -209.176351728     A.U. after   11 cycles
 Optimization completed.
    -- Stationary point found.
 Normal termination of Gaussian 09 at Tue Mar  6 11:33:43 2018.

 ----------------------------------------------------------------------
 #P Geom=AllCheck Guess=TCheck SCRF=Check GenChk UB3LYP/Aug-CC-pVDZ Fre
 q
 ----------------------------------------------------------------------

 Pyrrole-3+-UB3LYP-aug-cc-pVDZ-Singlet
 -------------------------------------
 Redundant internal coordinates taken from checkpoint file:
 Pyrrole-3+-UB3LYP-aug-cc-pVDZ-Singlet.chk
 Charge =  1 Multiplicity = 1

                         Standard orientation:
 ---------------------------------------------------------------------
 Center     Atomic      Atomic             Coordinates (Angstroms)
 Number     Number       Type             X           Y           Z
 ---------------------------------------------------------------------
      1          6           0       -0.245383   -1.096431    0.194845
      2          6           0       -1.287937   -0.286648   -0.151792
      3          1           0       -2.361464   -0.371347   -0.012902
      4          6           0       -0.542701    0.911619   -0.027565
      5          1           0       -0.956465    1.842123    0.364706
      6          7           0        0.843111    0.694022   -0.004213
      7          1           0        1.542612    1.429683    0.063140
      8          6           0        1.056353   -0.631006   -0.039683
      9          1           0        1.991549   -1.143819   -0.240282
 ---------------------------------------------------------------------

 SCF Done:  E(UB3LYP) =  -209.176351728     A.U. after    2 cycles

 The electronic state is 1-A.
 Alpha  occ. eigenvalues --  -14.64259 -10.49707 -10.49468 -10.49235 -10.44896
 Alpha  occ. eigenvalues --   -1.25397  -1.05253  -0.97962  -0.84574  -0.80323
 Alpha  occ. eigenvalues --   -0.78599  -0.69716  -0.68248  -0.65885  -0.64107
 Alpha  occ. eigenvalues --   -0.51689  -0.47735
 Alpha virt. eigenvalues --   -0.36836  -0.23439  -0.20358  -0.16315  -0.13088
 Alpha virt. eigenvalues --   -0.12553  -0.11002  -0.10497  -0.10168  -0.08959
 Alpha virt. eigenvalues --   -0.06309  -0.05504  -0.04662  -0.03932  -0.03588

  Beta  occ. eigenvalues --  -14.64259 -10.49707 -10.49468 -10.49235 -10.44896
  Beta  occ. eigenvalues --   -1.25397  -1.05253  -0.97962  -0.84574  -0.80323
  Beta  occ. eigenvalues --   -0.78599  -0.69716  -0.68248  -0.65885  -0.64107
  Beta  occ. eigenvalues --   -0.51689  -0.47735
  Beta virt. eigenvalues --   -0.36837  -0.23439  -0.20358  -0.16315  -0.13088
  Beta virt. eigenvalues --   -0.12553  -0.11002  -0.10497  -0.10168  -0.08959
  Beta virt. eigenvalues --   -0.06309  -0.05504  -0.04662  -0.03932  -0.03588

 Mulliken atomic charges:
              1
     1  C   -0.034195
     2  C    0.942851
     3  H   -0.457450
     4  C    0.684893
     5  H   -0.404442
     6  N   -0.027293
     7  H   -0.110829
     8  C    0.673089
     9  H   -0.266624
 Sum of Mulliken atomic charges =   1.00000

 Dipole moment (field-independent basis, Debye):
    X=              1.1537    Y=              1.1665    Z=             -0.0650  Tot=              1.6420
 Quadrupole moment (field-independent basis, Debye-Ang):
   XX=            -13.9420   YY=            -18.0809   ZZ=            -29.2070
   XY=             -0.0196   XZ=             -0.6994   YZ=              1.8926

  Exact polarizability:  54.212   0.346  54.567  -0.821  -1.947  29.167
 Approx polarizability:  91.028   6.341 120.925  -1.898  -8.448  44.389

                     1                      2                      3
                     A                      A                      A
 Frequencies --   466.3494               516.0172               624.1928
 Red. masses --     3.2768                 2.4201                 1.4633
 Frc consts  --     0.4199                 0.3797                 0.3359
 IR Inten    --    18.6523                95.9654                29.4926

                     4                      5                      6
                     A                      A                      A
 Frequencies --   662.2366               764.0362               788.4146
 Red. masses --     3.2268                 2.1500                 1.5763
 Frc consts  --     0.8338                 0.7394                 0.5773
 IR Inten    --    26.5125                86.9078                14.2774

                     7                      8                      9
                     A                      A                      A
 Frequencies --   831.1467               883.6069              1001.5192
 Red. masses --     1.4849                 2.2279                 1.5599
 Frc consts  --     0.6044                 1.0249                 0.9218
 IR Inten    --    17.1292                31.9680                15.5860

                    10                     11                     12
                     A                      A                      A
 Frequencies --  1083.5033              1110.0575              1184.1803
 Red. masses --     1.2779                 2.8305                 1.4921
 Frc consts  --     0.8839                 2.0550                 1.2328
 IR Inten    --    26.9309                13.2191                 3.3270

                    13                     14                     15
                     A                      A                      A
 Frequencies --  1235.8841              1285.8403              1453.0228
 Red. masses --     1.5983                 3.1868                 2.2652
 Frc consts  --     1.4383                 3.1044                 2.8177
 IR Inten    --     5.1863                16.1138                12.2278

                    16                     17                     18
                     A                      A                      A
 Frequencies --  1467.6301              1545.4951              3208.9915
 Red. masses --     3.8603                 3.5887                 1.0942
 Frc consts  --     4.8989                 5.0503                 6.6389
 IR Inten    --    52.0218                19.3531                35.0590

                    19                     20                     21
                     A                      A                      A
 Frequencies --  3267.6616              3275.0997              3556.9006
 Red. masses --     1.1018                 1.1019                 1.0835
 Frc consts  --     6.9314                 6.9636                 8.0763
 IR Inten    --    57.2496                46.1933               187.8734

 - Thermochemistry -
 -------------------
 Temperature   298.150 Kelvin.  Pressure   1.00000 Atm.
 Atom     1 has atomic number  6 and mass  12.00000

 Molecular mass:    66.03437 amu.
 Principal axes and moments of inertia in atomic units:
                           1         2         3
     Eigenvalues --   159.60841 219.35838 372.37795
           X            0.99838  -0.05561  -0.01204
           Y            0.05589   0.99814   0.02447
           Z            0.01065  -0.02510   0.99963
 This molecule is an asymmetric top.
 Rotational symmetry number  1.
 Rotational temperatures (Kelvin)      0.54266     0.39485     0.23260
 Rotational constants (GHZ):          11.30731     8.22736     4.84653
 Zero-point vibrational energy     180706.6 (Joules/Mol)
                                   43.18992 (Kcal/Mol)
 Warning -- explicit consideration of   2 degrees of freedom as
           vibrations may cause significant error
 Vibrational temperatures:    670.97   742.43   898.07   952.81  1099.28
          (Kelvin)           1134.35  1195.83  1271.31  1440.96  1558.92
                             1597.12  1703.77  1778.16  1850.04  2090.57
                             2111.59  2223.62  4617.02  4701.43  4712.13
                             5117.58

 Zero-point correction=                           0.068828 (Hartree/Particle)
 Thermal correction to Energy=                    0.072844
 Thermal correction to Enthalpy=                  0.073789
 Thermal correction to Gibbs Free Energy=         0.042502
 Sum of electronic and zero-point Energies=           -209.107524
 Sum of electronic and thermal Energies=              -209.103507
 Sum of electronic and thermal Enthalpies=            -209.102563
 Sum of electronic and thermal Free Energies=         -209.133849

                     E (Thermal)             CV                S
                      KCal/Mol        Cal/Mol-Kelvin    Cal/Mol-Kelvin
 Total                   45.711             14.621             65.847
 Electronic               0.000              0.000              0.000
 Translational            0.889              2.981             38.481
 Rotational               0.889              2.981             24.081
 Vibrational             43.933              8.660              3.285
 Vibration     1          0.824              1.325              0.748
 Vibration     2          0.871              1.215              0.619

 Optimization completed.
    -- Stationary point found.
 Normal termination of Gaussian 09 at Tue Mar  6 11:35:14 2018.
