 Gaussian 09, Revision B.01,
 Gaussian 09:  EM64L-G09RevB.01 12-Aug-2010

 -------------------------------------------------
 #p Temperature=298.15 opt freq UB3LYP/aug-cc-pVDZ
 -------------------------------------------------

 ----------------------------------------
 Pyrrole-3-N2+-UB3LYP-aug-cc-pVDZ-Triplet
 ----------------------------------------
 Symbolic Z-matrix:
 Charge =  1 Multiplicity = 3

 SCF Done:  E(UB3LYP) =  -318.702163820     A.U. after   21 cycles
 SCF Done:  E(UB3LYP) =  -318.719554861     A.U. after   20 cycles
 SCF Done:  E(UB3LYP) =  -318.721001764     A.U. after   20 cycles
 SCF Done:  E(UB3LYP) =  -318.720707593     A.U. after   20 cycles
 SCF Done:  E(UB3LYP) =  -318.721195987     A.U. after   18 cycles
 SCF Done:  E(UB3LYP) =  -318.721267352     A.U. after   17 cycles
 SCF Done:  E(UB3LYP) =  -318.721273554     A.U. after   13 cycles
 SCF Done:  E(UB3LYP) =  -318.721281233     A.U. after   21 cycles
 SCF Done:  E(UB3LYP) =  -318.721299061     A.U. after   17 cycles
 SCF Done:  E(UB3LYP) =  -318.721338393     A.U. after   18 cycles
 SCF Done:  E(UB3LYP) =  -318.737468071     A.U. after   20 cycles
 SCF Done:  E(UB3LYP) =  -318.736873464     A.U. after   20 cycles
 SCF Done:  E(UB3LYP) =  -318.737625048     A.U. after   20 cycles
 SCF Done:  E(UB3LYP) =  -318.737933594     A.U. after   20 cycles
 SCF Done:  E(UB3LYP) =  -318.737996214     A.U. after   14 cycles
 SCF Done:  E(UB3LYP) =  -318.738028399     A.U. after   15 cycles
 SCF Done:  E(UB3LYP) =  -318.738032237     A.U. after   14 cycles
 SCF Done:  E(UB3LYP) =  -318.738033226     A.U. after   23 cycles
 SCF Done:  E(UB3LYP) =  -318.738033359     A.U. after   23 cycles
 Optimization completed.
    -- Stationary point found.
 Normal termination of Gaussian 09 at Fri Jan 21 13:48:57 2005.

 ----------------------------------------------------------------------
 #P Geom=AllCheck Guess=TCheck SCRF=Check GenChk UB3LYP/Aug-CC-pVDZ Fre
 q
 ----------------------------------------------------------------------

 Pyrrole-3-N2+-UB3LYP-aug-cc-pVDZ-Triplet
 ----------------------------------------
 Redundant internal coordinates taken from checkpoint file:
 Pyrrole-3-N2+-UB3LYP-aug-cc-pVDZ-Triplet.chk
 Charge =  1 Multiplicity = 3

                         Standard orientation:
 ---------------------------------------------------------------------
 Center     Atomic      Atomic             Coordinates (Angstroms)
 Number     Number       Type             X           Y           Z
 ---------------------------------------------------------------------
      1          7           0       -1.782337    0.495660    0.000510
      2          7           0       -2.578109   -0.393019   -0.000715
      3          6           0       -0.383015    0.249096    0.000292
      4          6           0        0.607470    1.215537    0.000048
      5          1           0        0.475992    2.293435    0.000067
      6          6           0        1.837966    0.525883   -0.000322
      7          1           0        2.856139    0.908262   -0.000749
      8          7           0        1.586072   -0.840695   -0.000093
      9          1           0        2.300725   -1.563924    0.000111
     10          6           0        0.265514   -1.060234    0.000315
     11          1           0       -0.179852   -2.053084    0.000658
 ---------------------------------------------------------------------

 SCF Done:  E(UB3LYP) =  -318.738033359     A.U. after    1 cycles

 The electronic state is 3-A.
 Alpha  occ. eigenvalues --  -14.64304 -14.60499 -14.58985 -10.50893 -10.49752
 Alpha  occ. eigenvalues --  -10.48246 -10.42722  -1.26699  -1.24921  -1.05126
 Alpha  occ. eigenvalues --   -0.99635  -0.91548  -0.83841  -0.80637  -0.76774
 Alpha  occ. eigenvalues --   -0.68861  -0.68270  -0.66904  -0.66413  -0.63860
 Alpha  occ. eigenvalues --   -0.62262  -0.58238  -0.50630  -0.49101  -0.39865
 Alpha virt. eigenvalues --   -0.27539  -0.22513  -0.17447  -0.15039  -0.13345
 Alpha virt. eigenvalues --   -0.12999  -0.12269  -0.10662  -0.10426  -0.08034
 Alpha virt. eigenvalues --   -0.06208  -0.06118  -0.05570  -0.04939  -0.04141

  Beta  occ. eigenvalues --  -14.64492 -14.60209 -14.57163 -10.50160 -10.49000
  Beta  occ. eigenvalues --  -10.47578 -10.42861  -1.25271  -1.23718  -1.04269
  Beta  occ. eigenvalues --   -0.97493  -0.89710  -0.83317  -0.79691  -0.75613
  Beta  occ. eigenvalues --   -0.67749  -0.66445  -0.66057  -0.64917  -0.60867
  Beta  occ. eigenvalues --   -0.60687  -0.54452  -0.49628
  Beta virt. eigenvalues --   -0.38809  -0.24785  -0.24291  -0.19810  -0.17365
  Beta virt. eigenvalues --   -0.13150  -0.12805  -0.12792  -0.11863  -0.10282
  Beta virt. eigenvalues --   -0.10201  -0.07770  -0.05882  -0.05838  -0.05432

 Mulliken atomic charges:
              1
     1  N    0.086685
     2  N   -0.426649
     3  C    0.421002
     4  C    1.545548
     5  H   -0.517444
     6  C    0.203296
     7  H   -0.438522
     8  N   -0.075608
     9  H   -0.083793
    10  C    0.745357
    11  H   -0.459874
 Sum of Mulliken atomic charges =   1.00000

 Dipole moment (field-independent basis, Debye):
    X=              6.4553    Y=             -1.5332    Z=              0.0006  Tot=              6.6349
 Quadrupole moment (field-independent basis, Debye-Ang):
   XX=            -24.3624   YY=            -25.9224   ZZ=            -38.4404
   XY=             -1.7023   XZ=             -0.0029   YZ=             -0.0046

  Exact polarizability:  92.178   7.972  62.285  -0.001   0.001  34.754
 Approx polarizability: 149.593  21.249 102.795   0.000   0.008  53.088

                     1                      2                      3
                     A                      A                      A
 Frequencies --    63.9012               224.7478               253.5055
 Red. masses --     8.4724                 6.3905                 5.4878
 Frc consts  --     0.0204                 0.1902                 0.2078
 IR Inten    --     0.1066                 5.5521                 0.0288

                     4                      5                      6
                     A                      A                      A
 Frequencies --   482.9379               509.0994               566.7756
 Red. masses --     7.0707                 2.4880                 2.4297
 Frc consts  --     0.9716                 0.3799                 0.4599
 IR Inten    --    23.9287                24.9148                18.2353

                     7                      8                      9
                     A                      A                      A
 Frequencies --   616.5326               701.7943               817.9564
 Red. masses --     9.9012                 1.2157                 1.3245
 Frc consts  --     2.2174                 0.3528                 0.5221
 IR Inten    --     2.9900                65.1960                42.3554

                    10                     11                     12
                     A                      A                      A
 Frequencies --   844.9298               879.3849               884.4903
 Red. masses --     5.2835                 5.3602                 1.5699
 Frc consts  --     2.2224                 2.4422                 0.7236
 IR Inten    --    67.6952                 2.5047                 1.3431

                    13                     14                     15
                     A                      A                      A
 Frequencies --   912.6056              1009.2045              1036.6636
 Red. masses --     1.4786                 2.1544                 1.6542
 Frc consts  --     0.7256                 1.2928                 1.0474
 IR Inten    --    10.0575                35.4030                25.8242

                    16                     17                     18
                     A                      A                      A
 Frequencies --  1114.8432              1226.5835              1263.5995
 Red. masses --     1.4776                 4.6173                 1.5846
 Frc consts  --     1.0820                 4.0929                 1.4907
 IR Inten    --    17.2056                10.6423                 0.5478

                    19                     20                     21
                     A                      A                      A
 Frequencies --  1301.8245              1446.5590              1499.0996
 Red. masses --     1.9644                 2.6471                 2.6991
 Frc consts  --     1.9615                 3.2635                 3.5739
 IR Inten    --    66.0997                16.9762               198.2210

                    22                     23                     24
                     A                      A                      A
 Frequencies --  1541.6037              1774.4357              3250.6277
 Red. masses --     3.4313                13.6623                 1.0969
 Frc consts  --     4.8045                25.3451                 6.8291
 IR Inten    --     1.0165                29.5871                36.2397

                    25                     26                     27
                     A                      A                      A
 Frequencies --  3255.0248              3269.2010              3569.8217
 Red. masses --     1.0989                 1.1046                 1.0836
 Frc consts  --     6.8600                 6.9555                 8.1357
 IR Inten    --    16.8089                33.3482               221.5248

 - Thermochemistry -
 -------------------
 Temperature   298.150 Kelvin.  Pressure   1.00000 Atm.
 Atom     1 has atomic number  7 and mass  14.00307

 Molecular mass:    94.04052 amu.
 Principal axes and moments of inertia in atomic units:
                           1         2         3
     Eigenvalues --   227.21090 835.135871062.34666
           X            1.00000   0.00255  -0.00001
           Y           -0.00255   1.00000  -0.00003
           Z            0.00001   0.00003   1.00000
 This molecule is an asymmetric top.
 Rotational symmetry number  1.
 Rotational temperatures (Kelvin)      0.38120     0.10371     0.08153
 Rotational constants (GHZ):           7.94302     2.16102     1.69883
 Zero-point vibrational energy     205265.7 (Joules/Mol)
                                   49.05969 (Kcal/Mol)
 Warning -- explicit consideration of   7 degrees of freedom as
           vibrations may cause significant error
 Vibrational temperatures:     91.94   323.36   364.74   694.84   732.48
          (Kelvin)            815.46   887.05  1009.72  1176.86  1215.66
                             1265.24  1272.58  1313.03  1452.02  1491.53
                             1604.01  1764.78  1818.04  1873.03  2081.27
                             2156.87  2218.02  2553.01  4676.92  4683.25
                             4703.65  5136.17

 Zero-point correction=                           0.078182 (Hartree/Particle)
 Thermal correction to Energy=                    0.084175
 Thermal correction to Enthalpy=                  0.085119
 Thermal correction to Gibbs Free Energy=         0.047005
 Sum of electronic and zero-point Energies=           -318.659852
 Sum of electronic and thermal Energies=              -318.653858
 Sum of electronic and thermal Enthalpies=            -318.652914
 Sum of electronic and thermal Free Energies=         -318.691029

                     E (Thermal)             CV                S
                      KCal/Mol        Cal/Mol-Kelvin    Cal/Mol-Kelvin
 Total                   52.821             21.405             80.220
 Electronic               0.000              0.000              2.183
 Translational            0.889              2.981             39.535
 Rotational               0.889              2.981             26.802
 Vibrational             51.043             15.444             11.699
 Vibration     1          0.597              1.972              4.333
 Vibration     2          0.649              1.803              1.921
 Vibration     3          0.665              1.757              1.706
 Vibration     4          0.839              1.288              0.702
 Vibration     5          0.864              1.230              0.636
 Vibration     6          0.923              1.103              0.510
 Vibration     7          0.976              0.997              0.422

 Optimization completed.
    -- Stationary point found.
 Normal termination of Gaussian 09 at Fri Jan 21 13:53:19 2005.
