 Gaussian 09, Revision B.01,
 Gaussian 09:  EM64L-G09RevB.01 12-Aug-2010

 -------------------------------------------------
 #p Temperature=298.15 opt freq UB3LYP/aug-cc-pVDZ
 -------------------------------------------------

 --------------------------------------
 Tetrazole-5-UB3LYP-aug-cc-pVDZ-Doublet
 --------------------------------------
 Symbolic Z-matrix:
 Charge =  0 Multiplicity = 2

 SCF Done:  E(UB3LYP) =  -257.563573194     A.U. after   18 cycles
 SCF Done:  E(UB3LYP) =  -257.588128652     A.U. after   18 cycles
 SCF Done:  E(UB3LYP) =  -257.591468890     A.U. after   17 cycles
 SCF Done:  E(UB3LYP) =  -257.592352452     A.U. after   20 cycles
 SCF Done:  E(UB3LYP) =  -257.592550184     A.U. after   19 cycles
 SCF Done:  E(UB3LYP) =  -257.592540848     A.U. after   13 cycles
 SCF Done:  E(UB3LYP) =  -257.592527796     A.U. after   19 cycles
 SCF Done:  E(UB3LYP) =  -257.592564544     A.U. after   19 cycles
 Optimization completed.
    -- Stationary point found.
 Normal termination of Gaussian 09 at Sat Feb 19 07:28:19 2005.

 ----------------------------------------------------------------------
 #P Geom=AllCheck Guess=TCheck SCRF=Check GenChk UB3LYP/Aug-CC-pVDZ Fre
 q
 ----------------------------------------------------------------------

 Tetrazole-5-UB3LYP-aug-cc-pVDZ-Doublet
 --------------------------------------
 Redundant internal coordinates taken from checkpoint file:
 Tetrazole-5-UB3LYP-aug-cc-pVDZ-Doublet.chk
 Charge =  0 Multiplicity = 2

                         Standard orientation:
 ---------------------------------------------------------------------
 Center     Atomic      Atomic             Coordinates (Angstroms)
 Number     Number       Type             X           Y           Z
 ---------------------------------------------------------------------
      1          7           0        1.035573   -0.315357    0.000047
      2          7           0        0.566210    0.958060   -0.000098
      3          7           0       -1.135957   -0.465820   -0.000058
      4          7           0       -0.725996    0.866359    0.000100
      5          6           0       -0.034204   -1.131198    0.000002
      6          1           0        2.026409   -0.515501    0.000048
 ---------------------------------------------------------------------

 SCF Done:  E(UB3LYP) =  -257.592564544     A.U. after    1 cycles

 The electronic state is 2-A.
 Alpha  occ. eigenvalues --  -14.46663 -14.43780 -14.42830 -14.39144 -10.31999
 Alpha  occ. eigenvalues --   -1.17040  -0.97242  -0.92608  -0.70022  -0.68611
 Alpha  occ. eigenvalues --   -0.60764  -0.52086  -0.44285  -0.35437  -0.35186
 Alpha  occ. eigenvalues --   -0.34109  -0.33183  -0.32754
 Alpha virt. eigenvalues --   -0.05077  -0.02822  -0.01400   0.03403   0.03663
 Alpha virt. eigenvalues --    0.04328   0.06215   0.06773   0.08393   0.09078
 Alpha virt. eigenvalues --    0.10748   0.11923   0.13011   0.14601   0.15504

  Beta  occ. eigenvalues --  -14.46520 -14.43741 -14.42563 -14.39057 -10.30385
  Beta  occ. eigenvalues --   -1.16423  -0.96833  -0.91573  -0.69476  -0.67431
  Beta  occ. eigenvalues --   -0.59323  -0.51757  -0.42193  -0.35436  -0.33266
  Beta  occ. eigenvalues --   -0.33232  -0.32353
  Beta virt. eigenvalues --   -0.18337  -0.04689  -0.02703   0.00273   0.03524
  Beta virt. eigenvalues --    0.04403   0.04558   0.06308   0.06824   0.08607
  Beta virt. eigenvalues --    0.09218   0.10755   0.11942   0.13393   0.14738

 Mulliken atomic charges:
              1
     1  N    0.237776
     2  N   -0.067878
     3  N   -0.077316
     4  N   -0.219450
     5  C    0.218798
     6  H   -0.091931
 Sum of Mulliken atomic charges =   0.00000

 Dipole moment (field-independent basis, Debye):
    X=              3.8733    Y=             -2.3296    Z=              0.0001  Tot=              4.5199
 Quadrupole moment (field-independent basis, Debye-Ang):
   XX=            -26.3224   YY=            -30.2399   ZZ=            -28.0772
   XY=             -2.5285   XZ=              0.0002   YZ=              0.0000

  Exact polarizability:  44.859  -0.741  44.520   0.000   0.000  26.061
 Approx polarizability:  80.625  -3.274  77.814  -0.001   0.000  38.226

                     1                      2                      3
                     A                      A                      A
 Frequencies --   528.9192               646.3082               715.5202
 Red. masses --     2.2395                 2.4837                 5.2296
 Frc consts  --     0.3691                 0.6113                 1.5775
 IR Inten    --    48.3823                33.7672                11.7604

                     4                      5                      6
                     A                      A                      A
 Frequencies --   836.5552               893.9620              1007.1328
 Red. masses --    13.8792                10.7034                 5.5501
 Frc consts  --     5.7227                 5.0397                 3.3168
 IR Inten    --    27.6289                10.9021                 2.3874

                     7                      8                      9
                     A                      A                      A
 Frequencies --  1046.5907              1210.3488              1284.9360
 Red. masses --     4.2502                 3.1285                12.5318
 Frc consts  --     2.7429                 2.7002                12.1907
 IR Inten    --    28.3069                11.5598                 4.8300

                    10                     11                     12
                     A                      A                      A
 Frequencies --  1413.6646              1487.8988              3650.5485
 Red. masses --     3.2755                 4.5105                 1.0839
 Frc consts  --     3.8567                 5.8833                 8.5103
 IR Inten    --    23.9322                35.9266               115.1060

 - Thermochemistry -
 -------------------
 Temperature   298.150 Kelvin.  Pressure   1.00000 Atm.
 Atom     1 has atomic number  7 and mass  14.00307

 Molecular mass:    69.02012 amu.
 Principal axes and moments of inertia in atomic units:
                           1         2         3
     Eigenvalues --   154.35597 175.84022 330.19619
           X            0.98409  -0.17765   0.00000
           Y            0.17765   0.98409   0.00000
           Z            0.00000   0.00000   1.00000
 This molecule is an asymmetric top.
 Rotational symmetry number  1.
 Rotational temperatures (Kelvin)      0.56113     0.49257     0.26231
 Rotational constants (GHZ):          11.69207    10.26353     5.46566
 Zero-point vibrational energy      88059.4 (Joules/Mol)
                                   21.04671 (Kcal/Mol)
 Warning -- explicit consideration of   1 degrees of freedom as
           vibrations may cause significant error
 Vibrational temperatures:    761.00   929.89  1029.47  1203.61  1286.21
          (Kelvin)           1449.04  1505.81  1741.42  1848.73  2033.95
                             2140.75  5252.32

 Zero-point correction=                           0.033540 (Hartree/Particle)
 Thermal correction to Energy=                    0.037049
 Thermal correction to Enthalpy=                  0.037994
 Thermal correction to Gibbs Free Energy=         0.006852
 Sum of electronic and zero-point Energies=           -257.559024
 Sum of electronic and thermal Energies=              -257.555515
 Sum of electronic and thermal Enthalpies=            -257.554571
 Sum of electronic and thermal Free Energies=         -257.585712

                     E (Thermal)             CV                S
                      KCal/Mol        Cal/Mol-Kelvin    Cal/Mol-Kelvin
 Total                   23.249             11.215             65.543
 Electronic               0.000              0.000              1.377
 Translational            0.889              2.981             38.613
 Rotational               0.889              2.981             23.709
 Vibrational             21.471              5.253              1.843
 Vibration     1          0.884              1.186              0.590

 Optimization completed.
    -- Stationary point found.
 Normal termination of Gaussian 09 at Sat Feb 19 07:29:00 2005.
