 Gaussian 09, Revision B.01,
 Gaussian 09:  EM64L-G09RevB.01 12-Aug-2010

 -------------------------------------------------
 #p Temperature=298.15 opt freq UB3LYP/aug-cc-pVDZ
 -------------------------------------------------

 ------------------------------------------
 Tetrazole-5-N2+-UB3LYP-aug-cc-pVDZ-Triplet
 ------------------------------------------
 Symbolic Z-matrix:
 Charge =  1 Multiplicity = 3

 SCF Done:  E(UB3LYP) =  -366.729973364     A.U. after   21 cycles
 SCF Done:  E(UB3LYP) =  -366.729995908     A.U. after   27 cycles
 SCF Done:  E(UB3LYP) =  -366.730003330     A.U. after   18 cycles
 SCF Done:  E(UB3LYP) =  -366.730006694     A.U. after   17 cycles
 SCF Done:  E(UB3LYP) =  -366.730008253     A.U. after   17 cycles
 SCF Done:  E(UB3LYP) =  -366.730009706     A.U. after   17 cycles
 SCF Done:  E(UB3LYP) =  -366.730012047     A.U. after   17 cycles
 SCF Done:  E(UB3LYP) =  -366.730015407     A.U. after   19 cycles
 SCF Done:  E(UB3LYP) =  -366.730018349     A.U. after   19 cycles
 SCF Done:  E(UB3LYP) =  -366.730022093     A.U. after   23 cycles
 SCF Done:  E(UB3LYP) =  -366.730024841     A.U. after   17 cycles
 SCF Done:  E(UB3LYP) =  -366.730026437     A.U. after   19 cycles
 SCF Done:  E(UB3LYP) =  -366.730026235     A.U. after   23 cycles
 SCF Done:  E(UB3LYP) =  -366.730026529     A.U. after   23 cycles
 SCF Done:  E(UB3LYP) =  -366.730026607     A.U. after   17 cycles
 Optimization completed.
    -- Stationary point found.
 Normal termination of Gaussian 09 at Fri Feb 18 21:50:48 2005.

 ----------------------------------------------------------------------
 #P Geom=AllCheck Guess=TCheck SCRF=Check GenChk UB3LYP/Aug-CC-pVDZ Fre
 q
 ----------------------------------------------------------------------

 Tetrazole-5-N2+-UB3LYP-aug-cc-pVDZ-Triplet
 ------------------------------------------
 Redundant internal coordinates taken from checkpoint file:
 Tetrazole-5-N2+-UB3LYP-aug-cc-pVDZ-Triplet.chk
 Charge =  1 Multiplicity = 3

                         Standard orientation:
 ---------------------------------------------------------------------
 Center     Atomic      Atomic             Coordinates (Angstroms)
 Number     Number       Type             X           Y           Z
 ---------------------------------------------------------------------
      1          7           0       -1.644830    0.498760    0.003950
      2          7           0       -2.525500   -0.335174   -0.003890
      3          7           0        0.700547    1.052840   -0.000758
      4          7           0        1.846955    0.475298   -0.001399
      5          7           0        0.277816   -1.128638    0.001482
      6          7           0        1.531112   -0.965343   -0.000136
      7          6           0       -0.320377    0.123062    0.001094
      8          1           0        0.619565    2.077432   -0.001297
 ---------------------------------------------------------------------

 SCF Done:  E(UB3LYP) =  -366.730026607     A.U. after    1 cycles

 The electronic state is 3-A.
 Alpha  occ. eigenvalues --  -14.74708 -14.72683 -14.70154 -14.68588 -14.68279
 Alpha  occ. eigenvalues --  -14.67326 -10.62734  -1.44283  -1.34389  -1.28553
 Alpha  occ. eigenvalues --   -1.16048  -1.01652  -0.98002  -0.93079  -0.83751
 Alpha  occ. eigenvalues --   -0.80212  -0.73671  -0.70189  -0.68487  -0.65621
 Alpha  occ. eigenvalues --   -0.64909  -0.61836  -0.57656  -0.56521  -0.48222
 Alpha virt. eigenvalues --   -0.36773  -0.31894  -0.23384  -0.20127  -0.16395
 Alpha virt. eigenvalues --   -0.15262  -0.12190  -0.11984  -0.09442  -0.08845
 Alpha virt. eigenvalues --   -0.07194  -0.05902  -0.05841  -0.05086  -0.04047

  Beta  occ. eigenvalues --  -14.74922 -14.71804 -14.69853 -14.68427 -14.67351
  Beta  occ. eigenvalues --  -14.66043 -10.61733  -1.43358  -1.32004  -1.28287
  Beta  occ. eigenvalues --   -1.13622  -0.99633  -0.97205  -0.92044  -0.83122
  Beta  occ. eigenvalues --   -0.77643  -0.69016  -0.67488  -0.66238  -0.64275
  Beta  occ. eigenvalues --   -0.63558  -0.60407  -0.55641
  Beta virt. eigenvalues --   -0.47302  -0.32573  -0.31803  -0.28738  -0.20421
  Beta virt. eigenvalues --   -0.19982  -0.15693  -0.14764  -0.12063  -0.11651
  Beta virt. eigenvalues --   -0.09057  -0.08484  -0.06797  -0.05614  -0.05491

 Mulliken atomic charges:
              1
     1  N    0.198150
     2  N   -0.260494
     3  N    0.240255
     4  N    0.002482
     5  N    0.009160
     6  N   -0.078306
     7  C    0.884875
     8  H    0.003878
 Sum of Mulliken atomic charges =   1.00000

 Dipole moment (field-independent basis, Debye):
    X=              0.2900    Y=              3.9882    Z=             -0.0008  Tot=              3.9987
 Quadrupole moment (field-independent basis, Debye-Ang):
   XX=            -32.4453   YY=            -29.9299   ZZ=            -34.2727
   XY=              2.3000   XZ=             -0.0019   YZ=             -0.0152

  Exact polarizability:  77.285   3.005  46.981   0.004   0.001  28.940
 Approx polarizability: 141.491  10.406  83.450  -0.007   0.038  44.221

                     1                      2                      3
                     A                      A                      A
 Frequencies --    20.9678               218.9022               222.5836
 Red. masses --    13.2624                11.1871                11.9446
 Frc consts  --     0.0034                 0.3158                 0.3487
 IR Inten    --     0.0766                 5.1256                13.7296

                     4                      5                      6
                     A                      A                      A
 Frequencies --   397.8844               498.6731               569.2185
 Red. masses --    11.8096                 8.7146                11.7814
 Frc consts  --     1.1015                 1.2768                 2.2491
 IR Inten    --     1.0432                11.8424                18.0114

                     7                      8                      9
                     A                      A                      A
 Frequencies --   658.3882               676.9939               815.1683
 Red. masses --     5.8777                13.4486                 1.2599
 Frc consts  --     1.5011                 3.6316                 0.4933
 IR Inten    --     0.9392                 2.7678                83.3194

                    10                     11                     12
                     A                      A                      A
 Frequencies --   880.8463              1003.7546              1067.2155
 Red. masses --    11.8501                 5.7076                 5.0168
 Frc consts  --     5.4172                 3.3881                 3.3666
 IR Inten    --     0.3244                14.3792                 1.9191

                    13                     14                     15
                     A                      A                      A
 Frequencies --  1217.7936              1391.8411              1401.0006
 Red. masses --     4.8247                 9.1478                 1.9885
 Frc consts  --     4.2157                10.4411                 2.2996
 IR Inten    --    25.1082                64.2669               104.1446

                    16                     17                     18
                     A                      A                      A
 Frequencies --  1462.2636              1627.1110              3453.5792
 Red. masses --     8.8725                12.4054                 1.0864
 Frc consts  --    11.1776                19.3506                 7.6343
 IR Inten    --     6.6497                87.9746               306.6478

 - Thermochemistry -
 -------------------
 Temperature   298.150 Kelvin.  Pressure   1.00000 Atm.
 Atom     1 has atomic number  7 and mass  14.00307

 Molecular mass:    97.02627 amu.
 Principal axes and moments of inertia in atomic units:
                           1         2         3
     Eigenvalues --   211.07174 776.25156 987.31964
           X            0.99997   0.00815   0.00000
           Y           -0.00815   0.99997  -0.00005
           Z            0.00000   0.00005   1.00000
 This molecule is an asymmetric top.
 Rotational symmetry number  1.
 Rotational temperatures (Kelvin)      0.41035     0.11158     0.08773
 Rotational constants (GHZ):           8.55037     2.32494     1.82792
 Zero-point vibrational energy     105176.8 (Joules/Mol)
                                   25.13786 (Kcal/Mol)
 Warning -- explicit consideration of   6 degrees of freedom as
           vibrations may cause significant error
 Vibrational temperatures:     30.17   314.95   320.25   572.47   717.48
          (Kelvin)            818.98   947.27   974.04  1172.84  1267.34
                             1444.18  1535.48  1752.13  2002.55  2015.72
                             2103.87  2341.05  4968.92

 Zero-point correction=                           0.040060 (Hartree/Particle)
 Thermal correction to Energy=                    0.046051
 Thermal correction to Enthalpy=                  0.046995
 Thermal correction to Gibbs Free Energy=         0.007902
 Sum of electronic and zero-point Energies=           -366.689967
 Sum of electronic and thermal Energies=              -366.683976
 Sum of electronic and thermal Enthalpies=            -366.683032
 Sum of electronic and thermal Free Energies=         -366.722125

                     E (Thermal)             CV                S
                      KCal/Mol        Cal/Mol-Kelvin    Cal/Mol-Kelvin
 Total                   28.897             19.553             82.278
 Electronic               0.000              0.000              2.183
 Translational            0.889              2.981             39.628
 Rotational               0.889              2.981             26.584
 Vibrational             27.120             13.591             13.883
 Vibration     1          0.593              1.986              6.540
 Vibration     2          0.647              1.812              1.968
 Vibration     3          0.648              1.807              1.938
 Vibration     4          0.764              1.475              0.970
 Vibration     5          0.854              1.253              0.661
 Vibration     6          0.925              1.098              0.506

 Normal termination of Gaussian 09 at Fri Feb 18 21:52:45 2005.
