 Gaussian 09, Revision B.01,
 Gaussian 09:  EM64L-G09RevB.01 12-Aug-2010

 -------------------------------------------------
 #p Temperature=298.15 opt freq UB3LYP/aug-cc-pVDZ
 -------------------------------------------------

 ---------------------------------------
 Tetrazole-5+-UB3LYP-aug-cc-pVDZ-Singlet
 ---------------------------------------
 Symbolic Z-matrix:
 Charge =  1 Multiplicity = 1

 SCF Done:  E(UB3LYP) =  -257.270074505     A.U. after   13 cycles
 SCF Done:  E(UB3LYP) =  -257.289050062     A.U. after   12 cycles
 SCF Done:  E(UB3LYP) =  -257.290802579     A.U. after   13 cycles
 SCF Done:  E(UB3LYP) =  -257.291351902     A.U. after   12 cycles
 SCF Done:  E(UB3LYP) =  -257.291582106     A.U. after   11 cycles
 SCF Done:  E(UB3LYP) =  -257.291635077     A.U. after   10 cycles
 SCF Done:  E(UB3LYP) =  -257.291647050     A.U. after   10 cycles
 SCF Done:  E(UB3LYP) =  -257.291648582     A.U. after   14 cycles
 Optimization completed.
    -- Stationary point found.
 Normal termination of Gaussian 09 at Wed Feb 23 23:27:48 2005.

 ----------------------------------------------------------------------
 #P Geom=AllCheck Guess=TCheck SCRF=Check GenChk UB3LYP/Aug-CC-pVDZ Fre
 q
 ----------------------------------------------------------------------

 Tetrazole-5+-UB3LYP-aug-cc-pVDZ-Singlet
 ---------------------------------------
 Redundant internal coordinates taken from checkpoint file:
 /home/ubuntu/g09/Gau-3598.chk
 Charge =  1 Multiplicity = 1

                         Standard orientation:
 ---------------------------------------------------------------------
 Center     Atomic      Atomic             Coordinates (Angstroms)
 Number     Number       Type             X           Y           Z
 ---------------------------------------------------------------------
      1          7           0       -0.009981    0.717267   -0.000167
      2          7           0       -1.121327    0.045371   -0.000962
      3          7           0        2.199132   -0.504576   -0.001716
      4          7           0       -2.065279   -0.551917    0.000355
      5          6           0        1.180910    0.052826    0.003346
      6          1           0       -0.103276    1.740032   -0.002646
 ---------------------------------------------------------------------

 SCF Done:  E(UB3LYP) =  -257.291648582     A.U. after    1 cycles

 The electronic state is 1-A.
 Alpha  occ. eigenvalues --  -14.83577 -14.77654 -14.77469 -14.59469 -10.51000
 Alpha  occ. eigenvalues --   -1.48377  -1.34099  -1.15746  -1.03840  -0.94393
 Alpha  occ. eigenvalues --   -0.83776  -0.77681  -0.77047  -0.67499  -0.60124
 Alpha  occ. eigenvalues --   -0.59246  -0.55397
 Alpha virt. eigenvalues --   -0.36571  -0.32882  -0.25974  -0.24279  -0.16941
 Alpha virt. eigenvalues --   -0.15834  -0.13785  -0.12342  -0.12020  -0.08274
 Alpha virt. eigenvalues --   -0.07272  -0.07041  -0.05874  -0.05057  -0.04849

  Beta  occ. eigenvalues --  -14.83577 -14.77654 -14.77469 -14.59469 -10.51000
  Beta  occ. eigenvalues --   -1.48377  -1.34099  -1.15746  -1.03840  -0.94393
  Beta  occ. eigenvalues --   -0.83776  -0.77681  -0.77047  -0.67499  -0.60124
  Beta  occ. eigenvalues --   -0.59246  -0.55397
  Beta virt. eigenvalues --   -0.36571  -0.32882  -0.25974  -0.24279  -0.16941
  Beta virt. eigenvalues --   -0.15834  -0.13785  -0.12342  -0.12020  -0.08274
  Beta virt. eigenvalues --   -0.07272  -0.07041  -0.05874  -0.05057  -0.04849

 Mulliken atomic charges:
              1
     1  N    0.295902
     2  N    0.624245
     3  N   -0.028722
     4  N   -0.094822
     5  C    0.162204
     6  H    0.041192
 Sum of Mulliken atomic charges =   1.00000

 Dipole moment (field-independent basis, Debye):
    X=             -3.9055    Y=              3.2243    Z=             -0.0007  Tot=              5.0645
 Quadrupole moment (field-independent basis, Debye-Ang):
   XX=            -21.9396   YY=            -18.8344   ZZ=            -25.1158
   XY=              1.4095   XZ=              0.0082   YZ=             -0.0104

  Exact polarizability:  58.212   1.439  29.237  -0.028   0.008  21.365
 Approx polarizability: 108.449   4.680  50.833  -0.148   0.045  30.257

                     1                      2                      3
                     A                      A                      A
 Frequencies --   147.9419               248.7561               340.1264
 Red. masses --    12.2747                 1.4692                 9.5436
 Frc consts  --     0.1583                 0.0536                 0.6505
 IR Inten    --     7.9795                99.5505                 1.3869

                     4                      5                      6
                     A                      A                      A
 Frequencies --   402.7555               449.3523               631.5176
 Red. masses --    11.8862                 4.8626                12.7827
 Frc consts  --     1.1360                 0.5785                 3.0036
 IR Inten    --     4.6485                10.5242                 5.4063

                     7                      8                      9
                     A                      A                      A
 Frequencies --   987.1284              1174.5035              1466.1068
 Red. masses --     7.4274                 5.2378                 1.2660
 Frc consts  --     4.2642                 4.2571                 1.6033
 IR Inten    --     4.9246                20.6727                34.8546

                    10                     11                     12
                     A                      A                      A
 Frequencies --  2351.5739              2374.3001              3435.9267
 Red. masses --    12.8730                13.0763                 1.0801
 Frc consts  --    41.9419                43.4316                 7.5129
 IR Inten    --    45.6784                47.7696               302.7221

 - Thermochemistry -
 -------------------
 Temperature   298.150 Kelvin.  Pressure   1.00000 Atm.
 Atom     1 has atomic number  7 and mass  14.00307

 Molecular mass:    69.02012 amu.
 Principal axes and moments of inertia in atomic units:
                           1         2         3
     Eigenvalues --    64.65516 577.81219 642.46595
           X            1.00000  -0.00126   0.00000
           Y            0.00126   1.00000  -0.00026
           Z            0.00000   0.00026   1.00000
 This molecule is an asymmetric top.
 Rotational symmetry number  1.
 Rotational temperatures (Kelvin)      1.33963     0.14990     0.13481
 Rotational constants (GHZ):          27.91334     3.12340     2.80908
 Zero-point vibrational energy      83798.3 (Joules/Mol)
                                   20.02828 (Kcal/Mol)
 Warning -- explicit consideration of   5 degrees of freedom as
           vibrations may cause significant error
 Vibrational temperatures:    212.86   357.90   489.37   579.47   646.52
          (Kelvin)            908.61  1420.26  1689.85  2109.40  3383.39
                             3416.08  4943.53

 Zero-point correction=                           0.031917 (Hartree/Particle)
 Thermal correction to Energy=                    0.037035
 Thermal correction to Enthalpy=                  0.037979
 Thermal correction to Gibbs Free Energy=         0.004122
 Sum of electronic and zero-point Energies=           -257.259731
 Sum of electronic and thermal Energies=              -257.254614
 Sum of electronic and thermal Enthalpies=            -257.253670
 Sum of electronic and thermal Free Energies=         -257.287526

                     E (Thermal)             CV                S
                      KCal/Mol        Cal/Mol-Kelvin    Cal/Mol-Kelvin
 Total                   23.240             15.723             71.258
 Electronic               0.000              0.000              0.000
 Translational            0.889              2.981             38.613
 Rotational               0.889              2.981             24.688
 Vibrational             21.462              9.761              7.957
 Vibration     1          0.617              1.905              2.699
 Vibration     2          0.662              1.765              1.739
 Vibration     3          0.720              1.595              1.212
 Vibration     4          0.768              1.464              0.953
 Vibration     5          0.808              1.362              0.798

 Normal termination of Gaussian 09 at Wed Feb 23 23:28:25 2005.
