 Gaussian 09, Revision B.01,
 Gaussian 09:  EM64L-G09RevB.01 12-Aug-2010

 -------------------------------------------------
 #p Temperature=298.15 opt freq UB3LYP/aug-cc-pVDZ
 -------------------------------------------------

 ---------------------------------------
 Tetrazole-5+-UB3LYP-aug-cc-pVDZ-Triplet
 ---------------------------------------
 Symbolic Z-matrix:
 Charge =  1 Multiplicity = 3

 SCF Done:  E(UB3LYP) =  -257.159141964     A.U. after   20 cycles
 SCF Done:  E(UB3LYP) =  -257.179763199     A.U. after   19 cycles
 SCF Done:  E(UB3LYP) =  -257.182351797     A.U. after   19 cycles
 SCF Done:  E(UB3LYP) =  -257.183264974     A.U. after   18 cycles
 SCF Done:  E(UB3LYP) =  -257.184047525     A.U. after   22 cycles
 SCF Done:  E(UB3LYP) =  -257.184158562     A.U. after   24 cycles
 SCF Done:  E(UB3LYP) =  -257.184213333     A.U. after   24 cycles
 SCF Done:  E(UB3LYP) =  -257.184194606     A.U. after   23 cycles
 SCF Done:  E(UB3LYP) =  -257.184234202     A.U. after   17 cycles
 SCF Done:  E(UB3LYP) =  -257.184237826     A.U. after   24 cycles
 SCF Done:  E(UB3LYP) =  -257.184239071     A.U. after   24 cycles
 Optimization completed.
    -- Stationary point found.
 Normal termination of Gaussian 09 at Sat Feb 19 07:34:15 2005.

 ----------------------------------------------------------------------
 #P Geom=AllCheck Guess=TCheck SCRF=Check GenChk UB3LYP/Aug-CC-pVDZ Fre
 q
 ----------------------------------------------------------------------

 Tetrazole-5+-UB3LYP-aug-cc-pVDZ-Triplet
 ---------------------------------------
 Redundant internal coordinates taken from checkpoint file:
 Tetrazole-5+-UB3LYP-aug-cc-pVDZ-Triplet.chk
 Charge =  1 Multiplicity = 3

                         Standard orientation:
 ---------------------------------------------------------------------
 Center     Atomic      Atomic             Coordinates (Angstroms)
 Number     Number       Type             X           Y           Z
 ---------------------------------------------------------------------
      1          7           0       -1.072540    0.267749    0.000333
      2          7           0       -0.660305   -0.945621   -0.000332
      3          7           0        1.172408    0.427364    0.000036
      4          7           0        0.860474   -0.796643    0.000184
      5          6           0       -0.004332    1.138122   -0.000294
      6          1           0       -2.074264    0.501323    0.000217
 ---------------------------------------------------------------------

 SCF Done:  E(UB3LYP) =  -257.184239071     A.U. after    1 cycles

 The electronic state is 3-A.
 Alpha  occ. eigenvalues --  -14.76575 -14.74714 -14.73021 -14.69227 -10.63431
 Alpha  occ. eigenvalues --   -1.45533  -1.30982  -1.15519  -1.00120  -0.96347
 Alpha  occ. eigenvalues --   -0.85912  -0.80715  -0.72132  -0.67035  -0.65490
 Alpha  occ. eigenvalues --   -0.62071  -0.60191  -0.57722
 Alpha virt. eigenvalues --   -0.36344  -0.29953  -0.22047  -0.19770  -0.14630
 Alpha virt. eigenvalues --   -0.12523  -0.12246  -0.09824  -0.08625  -0.07264
 Alpha virt. eigenvalues --   -0.06151  -0.05633  -0.04811  -0.04040  -0.01901

  Beta  occ. eigenvalues --  -14.76699 -14.73617 -14.72371 -14.69279 -10.60997
  Beta  occ. eigenvalues --   -1.43945  -1.30341  -1.12047  -0.98758  -0.94956
  Beta  occ. eigenvalues --   -0.84409  -0.77524  -0.68597  -0.66110  -0.63287
  Beta  occ. eigenvalues --   -0.57268
  Beta virt. eigenvalues --   -0.47598  -0.43759  -0.31159  -0.25675  -0.21269
  Beta virt. eigenvalues --   -0.18668  -0.14219  -0.11886  -0.11413  -0.09230
  Beta virt. eigenvalues --   -0.08130  -0.06876  -0.05620  -0.05290  -0.04215

 Mulliken atomic charges:
              1
     1  N    0.344576
     2  N    0.028599
     3  N    0.110956
     4  N   -0.033938
     5  C    0.507468
     6  H    0.042339
 Sum of Mulliken atomic charges =   1.00000

 Dipole moment (field-independent basis, Debye):
    X=             -3.9653    Y=              2.4991    Z=             -0.0005  Tot=              4.6871
 Quadrupole moment (field-independent basis, Debye-Ang):
   XX=            -17.8384   YY=            -22.9543   ZZ=            -24.4942
   XY=             -2.4805   XZ=             -0.0019   YZ=              0.0001

  Exact polarizability:  38.939  -0.441  41.388  -0.002  -0.004  20.640
 Approx polarizability:  69.415   0.640  90.532   0.005  -0.008  31.395

                     1                      2                      3
                     A                      A                      A
 Frequencies --   415.7679               496.0867               625.8281
 Red. masses --    10.6671                11.5938                 6.9194
 Frc consts  --     1.0864                 1.6811                 1.5967
 IR Inten    --     0.0375                16.3316                 0.4746

                     4                      5                      6
                     A                      A                      A
 Frequencies --   726.8271               817.3076               898.5395
 Red. masses --    11.8660                 1.2368                12.1430
 Frc consts  --     3.6933                 0.4868                 5.7763
 IR Inten    --     0.0082                86.4135                12.2893

                     7                      8                      9
                     A                      A                      A
 Frequencies --   954.8966               983.1205              1318.2498
 Red. masses --     5.8975                 5.9572                 5.8551
 Frc consts  --     3.1683                 3.3924                 5.9949
 IR Inten    --     0.0331                13.5954                 8.3772

                    10                     11                     12
                     A                      A                      A
 Frequencies --  1360.5870              1430.3713              3446.7101
 Red. masses --     1.7774                 5.3720                 1.0864
 Frc consts  --     1.9386                 6.4757                 7.6040
 IR Inten    --    49.9001                 7.8375               342.1755

 - Thermochemistry -
 -------------------
 Temperature   298.150 Kelvin.  Pressure   1.00000 Atm.
 Atom     1 has atomic number  7 and mass  14.00307

 Molecular mass:    69.02012 amu.
 Principal axes and moments of inertia in atomic units:
                           1         2         3
     Eigenvalues --   145.31458 200.60735 345.92189
           X            0.99770  -0.06779  -0.00001
           Y            0.06779   0.99770   0.00000
           Z            0.00001   0.00000   1.00000
 This molecule is an asymmetric top.
 Rotational symmetry number  1.
 Rotational temperatures (Kelvin)      0.59604     0.43176     0.25039
 Rotational constants (GHZ):          12.41955     8.99639     5.21719
 Zero-point vibrational energy      80594.2 (Joules/Mol)
                                   19.26247 (Kcal/Mol)
 Warning -- explicit consideration of   2 degrees of freedom as
           vibrations may cause significant error
 Vibrational temperatures:    598.20   713.76   900.43  1045.74  1175.92
          (Kelvin)           1292.80  1373.88  1414.49  1896.67  1957.58
                             2057.98  4959.04

 Zero-point correction=                           0.030697 (Hartree/Particle)
 Thermal correction to Energy=                    0.034536
 Thermal correction to Enthalpy=                  0.035480
 Thermal correction to Gibbs Free Energy=         0.003414
 Sum of electronic and zero-point Energies=           -257.153542
 Sum of electronic and thermal Energies=              -257.149703
 Sum of electronic and thermal Enthalpies=            -257.148759
 Sum of electronic and thermal Free Energies=         -257.180825

                     E (Thermal)             CV                S
                      KCal/Mol        Cal/Mol-Kelvin    Cal/Mol-Kelvin
 Total                   21.672             12.718             67.489
 Electronic               0.000              0.000              2.183
 Translational            0.889              2.981             38.613
 Rotational               0.889              2.981             23.826
 Vibrational             19.894              6.757              2.866
 Vibration     1          0.779              1.436              0.906
 Vibration     2          0.852              1.259              0.668

 Optimization completed.
    -- Stationary point found.
 Normal termination of Gaussian 09 at Sat Feb 19 07:34:57 2005.
