 Gaussian 09, Revision B.01,
 Gaussian 09:  EM64L-G09RevB.01 12-Aug-2010

 -------------------------------------------------
 #p Temperature=298.15 opt freq UB3LYP/aug-cc-pVDZ
 -------------------------------------------------

 ----------------------------------------
 Tetrazole-5-N2-UB3LYP-aug-cc-pVDZ-Duplet
 ----------------------------------------
 Symbolic Z-matrix:
 Charge =  0 Multiplicity = 2

 SCF Done:  E(UB3LYP) =  -367.084239530     A.U. after   18 cycles
 SCF Done:  E(UB3LYP) =  -367.110269598     A.U. after   18 cycles
 SCF Done:  E(UB3LYP) =  -367.113282118     A.U. after   20 cycles
 SCF Done:  E(UB3LYP) =  -367.114704132     A.U. after   20 cycles
 SCF Done:  E(UB3LYP) =  -367.114749628     A.U. after   18 cycles
 SCF Done:  E(UB3LYP) =  -367.114759936     A.U. after   17 cycles
 SCF Done:  E(UB3LYP) =  -367.114759469     A.U. after   17 cycles
 SCF Done:  E(UB3LYP) =  -367.114820929     A.U. after   17 cycles
 SCF Done:  E(UB3LYP) =  -367.062011267     A.U. after   29 cycles
 SCF Done:  E(UB3LYP) =  -367.114891835     A.U. after   21 cycles
 SCF Done:  E(UB3LYP) =  -367.134374004     A.U. after   19 cycles
 SCF Done:  E(UB3LYP) =  -367.135535952     A.U. after   19 cycles
 SCF Done:  E(UB3LYP) =  -367.136175520     A.U. after   15 cycles
 SCF Done:  E(UB3LYP) =  -367.136342570     A.U. after   14 cycles
 SCF Done:  E(UB3LYP) =  -367.136426723     A.U. after   14 cycles
 SCF Done:  E(UB3LYP) =  -367.136459504     A.U. after   19 cycles
 SCF Done:  E(UB3LYP) =  -367.136471109     A.U. after   20 cycles
 SCF Done:  E(UB3LYP) =  -367.136474942     A.U. after   13 cycles
 SCF Done:  E(UB3LYP) =  -367.136475546     A.U. after   12 cycles
 Optimization completed.
    -- Stationary point found.
 Normal termination of Gaussian 09 at Tue Mar  6 18:26:27 2018.

 ----------------------------------------------------------------------
 #P Geom=AllCheck Guess=TCheck SCRF=Check GenChk UB3LYP/Aug-CC-pVDZ Fre
 q
 ----------------------------------------------------------------------

 Tetrazole-5-N2-UB3LYP-aug-cc-pVDZ-Duplet
 ----------------------------------------
 Redundant internal coordinates taken from checkpoint file:
 Tetrazole-5-N2-UB3LYP-aug-cc-pVDZ-Duplet.chk
 Charge =  0 Multiplicity = 2

                         Standard orientation:
 ---------------------------------------------------------------------
 Center     Atomic      Atomic             Coordinates (Angstroms)
 Number     Number       Type             X           Y           Z
 ---------------------------------------------------------------------
      1          7           0       -1.671659    0.460996   -0.000185
      2          7           0       -2.564207   -0.324729    0.000253
      3          7           0        0.664646    1.033651   -0.000019
      4          7           0        1.858898    0.421880    0.000095
      5          7           0        0.274668   -1.101842   -0.000125
      6          7           0        1.608705   -0.857089    0.000086
      7          6           0       -0.296880    0.087718   -0.000177
      8          1           0        0.583927    2.043618    0.000328
 ---------------------------------------------------------------------

 SCF Done:  E(UB3LYP) =  -367.136475546     A.U. after    1 cycles

 The electronic state is 2-A.
 Alpha  occ. eigenvalues --  -14.47862 -14.46679 -14.44750 -14.44570 -14.43063
 Alpha  occ. eigenvalues --  -14.40353 -10.34572  -1.18576  -1.11965  -0.99057
 Alpha  occ. eigenvalues --   -0.93719  -0.78189  -0.71673  -0.67329  -0.59953
 Alpha  occ. eigenvalues --   -0.54482  -0.51819  -0.47298  -0.46604  -0.41934
 Alpha  occ. eigenvalues --   -0.37008  -0.34303  -0.33924  -0.33093  -0.25696
 Alpha virt. eigenvalues --   -0.12052  -0.05126  -0.03086   0.01595   0.01964
 Alpha virt. eigenvalues --    0.03205   0.03430   0.05150   0.06132   0.07262
 Alpha virt. eigenvalues --    0.08094   0.09695   0.10359   0.10400   0.11444

  Beta  occ. eigenvalues --  -14.47884 -14.46366 -14.44590 -14.43078 -14.43036
  Beta  occ. eigenvalues --  -14.40370 -10.34194  -1.18505  -1.10165  -0.99046
  Beta  occ. eigenvalues --   -0.93298  -0.76555  -0.71551  -0.66784  -0.59472
  Beta  occ. eigenvalues --   -0.54378  -0.47661  -0.46626  -0.43329  -0.41455
  Beta  occ. eigenvalues --   -0.37114  -0.34197  -0.33564  -0.32761
  Beta virt. eigenvalues --   -0.10849  -0.10846  -0.05122  -0.03017   0.02053
  Beta virt. eigenvalues --    0.02082   0.03275   0.03431   0.05253   0.06195
  Beta virt. eigenvalues --    0.07300   0.08192   0.09809   0.10388   0.10405

 Mulliken atomic charges:
              1
     1  N    0.169933
     2  N   -0.487936
     3  N    0.197443
     4  N   -0.116287
     5  N   -0.146266
     6  N   -0.215968
     7  C    0.706419
     8  H   -0.107337
 Sum of Mulliken atomic charges =   0.00000

 Dipole moment (field-independent basis, Debye):
    X=             -0.6043    Y=              4.0900    Z=              0.0002  Tot=              4.1344
 Quadrupole moment (field-independent basis, Debye-Ang):
   XX=            -49.1484   YY=            -37.5402   ZZ=            -37.8555
   XY=              1.7234   XZ=              0.0004   YZ=              0.0016

  Exact polarizability:  77.820   2.763  53.798   0.000  -0.001  32.686
 Approx polarizability: 126.964   9.176  97.160  -0.002  -0.004  50.086

                     1                      2                      3
                     A                      A                      A
 Frequencies --    99.0224               229.9165               281.3563
 Red. masses --    13.4602                10.8106                12.3910
 Frc consts  --     0.0778                 0.3367                 0.5779
 IR Inten    --     0.0190                 4.0645                 8.3601

                     4                      5                      6
                     A                      A                      A
 Frequencies --   496.0950               628.5300               676.5178
 Red. masses --     9.2612                 1.5715                13.3801
 Frc consts  --     1.3429                 0.3658                 3.6080
 IR Inten    --     8.4104                78.4700                26.0431

                     7                      8                      9
                     A                      A                      A
 Frequencies --   704.6617               734.4851               998.5613
 Red. masses --     3.5446                 7.7177                10.1313
 Frc consts  --     1.0370                 2.4530                 5.9520
 IR Inten    --     5.9774                 8.7398                 0.4240

                    10                     11                     12
                     A                      A                      A
 Frequencies --  1070.2842              1080.0965              1101.7449
 Red. masses --     6.5242                 2.7030                13.0590
 Frc consts  --     4.4032                 1.8579                 9.3395
 IR Inten    --    13.3347                23.9546                 0.8782

                    13                     14                     15
                     A                      A                      A
 Frequencies --  1239.4008              1314.7864              1445.0980
 Red. masses --     6.0774                 4.2808                10.9330
 Frc consts  --     5.5003                 4.3600                13.4519
 IR Inten    --     2.5105                 2.5448                28.8665

                    16                     17                     18
                     A                      A                      A
 Frequencies --  1504.5116              1825.2915              3621.1283
 Red. masses --     3.3519                13.8215                 1.0842
 Frc consts  --     4.4703                27.1313                 8.3765
 IR Inten    --    13.3448                18.4947               124.4753

 - Thermochemistry -
 -------------------
 Temperature   298.150 Kelvin.  Pressure   1.00000 Atm.
 Atom     1 has atomic number  7 and mass  14.00307

 Molecular mass:    97.02627 amu.
 Principal axes and moments of inertia in atomic units:
                           1         2         3
     Eigenvalues --   190.85178 801.62695 992.47872
           X            0.99998   0.00700   0.00000
           Y           -0.00700   0.99998   0.00001
           Z            0.00000  -0.00001   1.00000
 This molecule is an asymmetric top.
 Rotational symmetry number  1.
 Rotational temperatures (Kelvin)      0.45383     0.10805     0.08727
 Rotational constants (GHZ):           9.45624     2.25135     1.81842
 Zero-point vibrational energy     113953.2 (Joules/Mol)
                                   27.23547 (Kcal/Mol)
 Warning -- explicit consideration of   4 degrees of freedom as
           vibrations may cause significant error
 Vibrational temperatures:    142.47   330.80   404.81   713.77   904.31
          (Kelvin)            973.36  1013.85  1056.76  1436.71  1539.90
                             1554.02  1585.16  1783.22  1891.68  2079.17
                             2164.65  2626.18  5209.99

 Zero-point correction=                           0.043402 (Hartree/Particle)
 Thermal correction to Energy=                    0.048789
 Thermal correction to Enthalpy=                  0.049734
 Thermal correction to Gibbs Free Energy=         0.013261
 Sum of electronic and zero-point Energies=           -367.093073
 Sum of electronic and thermal Energies=              -367.087686
 Sum of electronic and thermal Enthalpies=            -367.086742
 Sum of electronic and thermal Free Energies=         -367.123215

                     E (Thermal)             CV                S
                      KCal/Mol        Cal/Mol-Kelvin    Cal/Mol-Kelvin
 Total                   30.616             17.875             76.763
 Electronic               0.000              0.000              1.377
 Translational            0.889              2.981             39.628
 Rotational               0.889              2.981             26.521
 Vibrational             28.838             11.914              9.237
 Vibration     1          0.604              1.950              3.473
 Vibration     2          0.652              1.795              1.880
 Vibration     3          0.681              1.708              1.525
 Vibration     4          0.852              1.259              0.668

 Optimization completed.
    -- Stationary point found.
 Normal termination of Gaussian 09 at Tue Mar  6 18:28:21 2018.
