 Gaussian 09, Revision B.01,
 Gaussian 09:  EM64L-G09RevB.01 12-Aug-2010

 -------------------------------------------------
 #p Temperature=298.15 opt freq UB3LYP/aug-cc-pVDZ
 -------------------------------------------------

 ------------------------------------------
 Tetrazole-5-N2+-UB3LYP-aug-cc-pVDZ-Singlet
 ------------------------------------------
 Symbolic Z-matrix:
 Charge =  1 Multiplicity = 1

 SCF Done:  E(UB3LYP) =  -366.795210140     A.U. after   14 cycles
 SCF Done:  E(UB3LYP) =  -366.822454803     A.U. after   13 cycles
 SCF Done:  E(UB3LYP) =  -366.824688901     A.U. after   15 cycles
 SCF Done:  E(UB3LYP) =  -366.825551857     A.U. after   14 cycles
 SCF Done:  E(UB3LYP) =  -366.825619335     A.U. after   14 cycles
 SCF Done:  E(UB3LYP) =  -366.825770258     A.U. after   11 cycles
 SCF Done:  E(UB3LYP) =  -366.825779111     A.U. after   16 cycles
 SCF Done:  E(UB3LYP) =  -366.825777696     A.U. after   16 cycles
 SCF Done:  E(UB3LYP) =  -366.825780379     A.U. after   16 cycles
 Optimization completed.
    -- Stationary point found.
 Normal termination of Gaussian 09 at Tue Mar  6 11:39:02 2018.

 ----------------------------------------------------------------------
 #P Geom=AllCheck Guess=TCheck SCRF=Check GenChk UB3LYP/Aug-CC-pVDZ Fre
 q
 ----------------------------------------------------------------------

 Tetrazole-5-N2+-UB3LYP-aug-cc-pVDZ-Singlet
 ------------------------------------------
 Redundant internal coordinates taken from checkpoint file:
 Tetrazole-5-N2+-UB3LYP-aug-cc-pVDZ-Singlet.chk
 Charge =  1 Multiplicity = 1

                         Standard orientation:
 ---------------------------------------------------------------------
 Center     Atomic      Atomic             Coordinates (Angstroms)
 Number     Number       Type             X           Y           Z
 ---------------------------------------------------------------------
      1          7           0        1.624137    0.015564    0.000014
      2          7           0        2.737474   -0.021328   -0.000028
      3          7           0       -0.569134    1.052965    0.000151
      4          7           0       -1.805398    0.567409   -0.000329
      5          7           0       -0.439216   -1.149428   -0.000159
      6          7           0       -1.714580   -0.742291    0.000300
      7          6           0        0.260416   -0.019906    0.000020
      8          1           0       -0.395477    2.059199    0.000230
 ---------------------------------------------------------------------

 SCF Done:  E(UB3LYP) =  -366.825780379     A.U. after    1 cycles

 The electronic state is 1-A.
 Alpha  occ. eigenvalues --  -14.79890 -14.76911 -14.70374 -14.66228 -14.64090
 Alpha  occ. eigenvalues --  -14.63420 -10.59340  -1.45323  -1.40224  -1.21487
 Alpha  occ. eigenvalues --   -1.19063  -1.06411  -0.93651  -0.90418  -0.81589
 Alpha  occ. eigenvalues --   -0.80817  -0.77353  -0.75969  -0.73650  -0.63013
 Alpha  occ. eigenvalues --   -0.58501  -0.56157  -0.55008  -0.53141
 Alpha virt. eigenvalues --   -0.36893  -0.35663  -0.25175  -0.20350  -0.19494
 Alpha virt. eigenvalues --   -0.15526  -0.14273  -0.12304  -0.12086  -0.09237
 Alpha virt. eigenvalues --   -0.07735  -0.06160  -0.05834  -0.05807  -0.04272

  Beta  occ. eigenvalues --  -14.79890 -14.76911 -14.70374 -14.66228 -14.64090
  Beta  occ. eigenvalues --  -14.63420 -10.59340  -1.45323  -1.40224  -1.21487
  Beta  occ. eigenvalues --   -1.19063  -1.06411  -0.93651  -0.90418  -0.81589
  Beta  occ. eigenvalues --   -0.80817  -0.77353  -0.75969  -0.73650  -0.63013
  Beta  occ. eigenvalues --   -0.58501  -0.56157  -0.55008  -0.53141
  Beta virt. eigenvalues --   -0.36893  -0.35663  -0.25175  -0.20350  -0.19494
  Beta virt. eigenvalues --   -0.15526  -0.14273  -0.12304  -0.12086  -0.09237
  Beta virt. eigenvalues --   -0.07735  -0.06160  -0.05834  -0.05807  -0.04272

 Mulliken atomic charges:
              1
     1  N    0.647225
     2  N   -0.375002
     3  N    0.174416
     4  N    0.005798
     5  N   -0.114511
     6  N   -0.140586
     7  C    0.830680
     8  H   -0.028020
 Sum of Mulliken atomic charges =   1.00000

 Dipole moment (field-independent basis, Debye):
    X=              4.7690    Y=              3.9816    Z=              0.0004  Tot=              6.2126
 Quadrupole moment (field-independent basis, Debye-Ang):
   XX=            -27.1657   YY=            -30.2724   ZZ=            -35.0774
   XY=             -1.3105   XZ=             -0.0001   YZ=              0.0012

  Exact polarizability:  86.991   0.641  44.823   0.000   0.000  27.733
 Approx polarizability: 196.591   4.387  83.165   0.000  -0.001  42.895

                     1                      2                      3
                     A                      A                      A
 Frequencies --   177.6206               185.8269               485.3567
 Red. masses --    12.1082                10.4771                11.1941
 Frc consts  --     0.2251                 0.2132                 1.5537
 IR Inten    --     5.7076                 6.0178                 0.0796

                     4                      5                      6
                     A                      A                      A
 Frequencies --   507.8500               600.1603               631.4411
 Red. masses --    10.6469                12.4530                 3.4090
 Frc consts  --     1.6179                 2.6428                 0.8008
 IR Inten    --     0.6011                13.9392                38.6453

                     7                      8                      9
                     A                      A                      A
 Frequencies --   679.5640               711.1550               975.6698
 Red. masses --     1.9767                 4.3995                 9.2224
 Frc consts  --     0.5378                 1.3109                 5.1725
 IR Inten    --    35.3051                21.0405                41.4413

                    10                     11                     12
                     A                      A                      A
 Frequencies --  1031.7692              1061.8152              1111.6161
 Red. masses --    13.6967                 6.0142                 3.2401
 Frc consts  --     8.5907                 3.9951                 2.3590
 IR Inten    --    14.2788                17.3921                13.2872

                    13                     14                     15
                     A                      A                      A
 Frequencies --  1191.3576              1336.7213              1412.1714
 Red. masses --     9.1889                 3.9206                 7.1907
 Frc consts  --     7.6842                 4.1274                 8.4488
 IR Inten    --     5.8296                73.7097                13.5783

                    16                     17                     18
                     A                      A                      A
 Frequencies --  1465.7934              2354.3834              3532.7678
 Red. masses --     2.9667                13.9851                 1.0873
 Frc consts  --     3.7555                45.6741                 7.9954
 IR Inten    --     9.9005               140.4338               250.9187

 - Thermochemistry -
 -------------------
 Temperature   298.150 Kelvin.  Pressure   1.00000 Atm.
 Atom     1 has atomic number  7 and mass  14.00307

 Molecular mass:    97.02627 amu.
 Principal axes and moments of inertia in atomic units:
                           1         2         3
     Eigenvalues --   180.30919 845.957881026.26704
           X            0.99999  -0.00438   0.00000
           Y            0.00438   0.99999   0.00001
           Z            0.00000  -0.00001   1.00000
 This molecule is an asymmetric top.
 Rotational symmetry number  1.
 Rotational temperatures (Kelvin)      0.48036     0.10239     0.08440
 Rotational constants (GHZ):          10.00915     2.13337     1.75855
 Zero-point vibrational energy     116355.0 (Joules/Mol)
                                   27.80952 (Kcal/Mol)
 Warning -- explicit consideration of   5 degrees of freedom as
           vibrations may cause significant error
 Vibrational temperatures:    255.56   267.36   698.32   730.68   863.50
          (Kelvin)            908.50   977.74  1023.19  1403.77  1484.48
                             1527.71  1599.37  1714.10  1923.24  2031.80
                             2108.95  3387.43  5082.86

 Zero-point correction=                           0.044317 (Hartree/Particle)
 Thermal correction to Energy=                    0.049482
 Thermal correction to Enthalpy=                  0.050426
 Thermal correction to Gibbs Free Energy=         0.015255
 Sum of electronic and zero-point Energies=           -366.781463
 Sum of electronic and thermal Energies=              -366.776299
 Sum of electronic and thermal Enthalpies=            -366.775354
 Sum of electronic and thermal Free Energies=         -366.810525

                     E (Thermal)             CV                S
                      KCal/Mol        Cal/Mol-Kelvin    Cal/Mol-Kelvin
 Total                   31.050             17.743             74.023
 Electronic               0.000              0.000              0.000
 Translational            0.889              2.981             39.628
 Rotational               0.889              2.981             26.551
 Vibrational             29.273             11.782              7.844
 Vibration     1          0.628              1.870              2.353
 Vibration     2          0.632              1.859              2.269
 Vibration     3          0.841              1.283              0.696
 Vibration     4          0.863              1.233              0.639
 Vibration     5          0.958              1.031              0.449

 Optimization completed.
    -- Stationary point found.
 Normal termination of Gaussian 09 at Tue Mar  6 11:40:53 2018.
