 Gaussian 09, Revision B.01,
 Gaussian 09:  EM64L-G09RevB.01 12-Aug-2010

 -------------------------------------------------
 #p Temperature=298.15 opt freq UB3LYP/aug-cc-pVDZ
 -------------------------------------------------

 ----------------------------------------
 Thiophene-2-N2-UB3LYP-aug-cc-pVDZ-Duplet
 ----------------------------------------
 Symbolic Z-matrix:
 Charge =  0 Multiplicity = 2

 SCF Done:  E(UB3LYP) =  -661.649216949     A.U. after   58 cycles
 SCF Done:  E(UB3LYP) =  -661.775913878     A.U. after   24 cycles
 SCF Done:  E(UB3LYP) =  -661.862925671     A.U. after   22 cycles
 SCF Done:  E(UB3LYP) =  -661.873809834     A.U. after   19 cycles
 SCF Done:  E(UB3LYP) =  -661.875272560     A.U. after   20 cycles
 SCF Done:  E(UB3LYP) =  -661.874531552     A.U. after   22 cycles
 SCF Done:  E(UB3LYP) =  -661.875432452     A.U. after   23 cycles
 SCF Done:  E(UB3LYP) =  -661.875505685     A.U. after   17 cycles
 SCF Done:  E(UB3LYP) =  -661.875512710     A.U. after   17 cycles
 SCF Done:  E(UB3LYP) =  -661.875517181     A.U. after   17 cycles
 SCF Done:  E(UB3LYP) =  -661.895190985     A.U. after   18 cycles
 SCF Done:  E(UB3LYP) =  -661.896699387     A.U. after   17 cycles
 SCF Done:  E(UB3LYP) =  -661.897121856     A.U. after   20 cycles
 SCF Done:  E(UB3LYP) =  -661.897176360     A.U. after   20 cycles
 SCF Done:  E(UB3LYP) =  -661.897322206     A.U. after   17 cycles
 SCF Done:  E(UB3LYP) =  -661.897332020     A.U. after   13 cycles
 SCF Done:  E(UB3LYP) =  -661.897334274     A.U. after   21 cycles
 SCF Done:  E(UB3LYP) =  -661.897336297     A.U. after   12 cycles
 SCF Done:  E(UB3LYP) =  -661.897337298     A.U. after   12 cycles
 Optimization completed.
    -- Stationary point found.
 Normal termination of Gaussian 09 at Wed Mar  7 16:39:37 2018.

 ----------------------------------------------------------------------
 #P Geom=AllCheck Guess=TCheck SCRF=Check GenChk UB3LYP/Aug-CC-pVDZ Fre
 q
 ----------------------------------------------------------------------

 Thiophene-2-N2-UB3LYP-aug-cc-pVDZ-Duplet
 ----------------------------------------
 Redundant internal coordinates taken from checkpoint file:
 Thiophene-2-N2-UB3LYP-aug-cc-pVDZ-Duplet.chk
 Charge =  0 Multiplicity = 2

                         Standard orientation:
 ---------------------------------------------------------------------
 Center     Atomic      Atomic             Coordinates (Angstroms)
 Number     Number       Type             X           Y           Z
 ---------------------------------------------------------------------
      1          7           0        1.863682    0.612800   -0.000139
      2          7           0        2.709835   -0.223414    0.000232
      3          6           0        0.467794    0.398793   -0.000112
      4          6           0       -0.466988    1.407581   -0.000217
      5          1           0       -0.189271    2.459565   -0.000007
      6          6           0       -1.800848    0.910202    0.000268
      7          1           0       -2.686241    1.542992    0.000477
      8          6           0       -1.853897   -0.462868    0.000004
      9          1           0       -2.736541   -1.097375   -0.000452
     10         16           0       -0.279933   -1.197071   -0.000021
 ---------------------------------------------------------------------

 SCF Done:  E(UB3LYP) =  -661.897337298     A.U. after    1 cycles

 The electronic state is 2-A.
 Alpha  occ. eigenvalues --  -88.93834 -14.42940 -14.40237 -10.27351 -10.24451
 Alpha  occ. eigenvalues --  -10.22517 -10.22005  -7.99845  -5.96173  -5.95815
 Alpha  occ. eigenvalues --   -5.95475  -1.08017  -0.90956  -0.79337  -0.76548
 Alpha  occ. eigenvalues --   -0.67950  -0.58815  -0.55403  -0.50935  -0.46645
 Alpha  occ. eigenvalues --   -0.45843  -0.44241  -0.42743  -0.39339  -0.39177
 Alpha  occ. eigenvalues --   -0.37424  -0.28207  -0.26581  -0.21622
 Alpha virt. eigenvalues --   -0.08989  -0.01569  -0.00801  -0.00038   0.00735
 Alpha virt. eigenvalues --    0.01579   0.02567   0.03362   0.04326   0.04780
 Alpha virt. eigenvalues --    0.05597   0.07578   0.07645   0.07887   0.08713

  Beta  occ. eigenvalues --  -88.93814 -14.42592 -14.38649 -10.26988 -10.24493
  Beta  occ. eigenvalues --  -10.22566 -10.21987  -7.99825  -5.96127  -5.95782
  Beta  occ. eigenvalues --   -5.95465  -1.06218  -0.90727  -0.78257  -0.76418
  Beta  occ. eigenvalues --   -0.66959  -0.58594  -0.55223  -0.49242  -0.45208
  Beta  occ. eigenvalues --   -0.44394  -0.43199  -0.41949  -0.38940  -0.37927
  Beta  occ. eigenvalues --   -0.35980  -0.28260  -0.26177
  Beta virt. eigenvalues --   -0.08192  -0.07797  -0.01531  -0.00381   0.00276
  Beta virt. eigenvalues --    0.00845   0.01819   0.02783   0.03439   0.04456
  Beta virt. eigenvalues --    0.04780   0.05697   0.07612   0.07669   0.07944

 Mulliken atomic charges:
              1
     1  N    0.057567
     2  N   -0.601033
     3  C    0.093491
     4  C    0.860337
     5  H   -0.587227
     6  C    0.816992
     7  H   -0.537430
     8  C    0.126092
     9  H   -0.599681
    10  S    0.370893
 Sum of Mulliken atomic charges =   0.00000

 Dipole moment (field-independent basis, Debye):
    X=             -3.6054    Y=              0.6760    Z=             -0.0002  Tot=              3.6683
 Quadrupole moment (field-independent basis, Debye-Ang):
   XX=            -50.1484   YY=            -44.1702   ZZ=            -49.3567
   XY=              0.7845   XZ=              0.0000   YZ=              0.0018

  Exact polarizability: 113.755  -4.808  85.879   0.001  -0.001  48.840
 Approx polarizability: 199.433 -16.400 159.299   0.004  -0.006  77.009

                     1                      2                      3
                     A                      A                      A
 Frequencies --   135.4941               197.3995               297.6585
 Red. masses --     8.5973                10.7672                 7.1603
 Frc consts  --     0.0930                 0.2472                 0.3738
 IR Inten    --     0.1140                 1.9206                 0.0287

                     4                      5                      6
                     A                      A                      A
 Frequencies --   457.4061               480.1845               569.8837
 Red. masses --     9.1560                 5.9427                 2.9459
 Frc consts  --     1.1286                 0.8073                 0.5637
 IR Inten    --     2.0957                 1.9982                 0.2585

                     7                      8                      9
                     A                      A                      A
 Frequencies --   581.0465               663.7197               713.4619
 Red. masses --    13.2558                 8.2681                 1.1750
 Frc consts  --     2.6368                 2.1460                 0.3524
 IR Inten    --    15.3986                 4.8279                70.6978

                    10                     11                     12
                     A                      A                      A
 Frequencies --   730.5448               850.2381               855.1850
 Red. masses --     7.4564                 1.2986                 4.2800
 Frc consts  --     2.3446                 0.5531                 1.8442
 IR Inten    --     0.7018                11.0844                12.9016

                    13                     14                     15
                     A                      A                      A
 Frequencies --   910.8675              1028.8814              1090.0870
 Red. masses --     1.3733                 1.9383                 1.4557
 Frc consts  --     0.6713                 1.2090                 1.0192
 IR Inten    --     1.2060                25.3048                 1.0932

                    16                     17                     18
                     A                      A                      A
 Frequencies --  1121.3253              1241.1491              1380.9792
 Red. masses --     2.1941                 1.4462                 2.5997
 Frc consts  --     1.6255                 1.3125                 2.9212
 IR Inten    --    15.0440                11.2057                 0.4720

                    19                     20                     21
                     A                      A                      A
 Frequencies --  1453.9900              1563.1199              1808.2665
 Red. masses --     6.4180                 5.4668                13.8556
 Frc consts  --     7.9942                 7.8698                26.6931
 IR Inten    --    29.3486                 2.9251                54.8811

                    22                     23                     24
                     A                      A                      A
 Frequencies --  3215.0659              3231.0044              3247.4000
 Red. masses --     1.0887                 1.0962                 1.0998
 Frc consts  --     6.6307                 6.7423                 6.8336
 IR Inten    --     2.4706                 0.1165                 0.4759

 - Thermochemistry -
 -------------------
 Temperature   298.150 Kelvin.  Pressure   1.00000 Atm.
 Atom     1 has atomic number  7 and mass  14.00307

 Molecular mass:   111.00169 amu.
 Principal axes and moments of inertia in atomic units:
                           1         2         3
     Eigenvalues --   355.63013 906.930201262.56031
           X            0.99994  -0.01121   0.00000
           Y            0.01121   0.99994   0.00001
           Z            0.00000  -0.00001   1.00000
 This molecule is an asymmetric top.
 Rotational symmetry number  1.
 Rotational temperatures (Kelvin)      0.24355     0.09550     0.06860
 Rotational constants (GHZ):           5.07477     1.98994     1.42943
 Zero-point vibrational energy     166426.6 (Joules/Mol)
                                   39.77692 (Kcal/Mol)
 Warning -- explicit consideration of   7 degrees of freedom as
           vibrations may cause significant error
 Vibrational temperatures:    194.95   284.01   428.26   658.10   690.88
          (Kelvin)            819.93   836.00   954.94  1026.51  1051.09
                             1223.30  1230.42  1310.53  1480.33  1568.39
                             1613.33  1785.73  1986.92  2091.96  2248.98
                             2601.69  4625.76  4648.69  4672.28

 Zero-point correction=                           0.063389 (Hartree/Particle)
 Thermal correction to Energy=                    0.069355
 Thermal correction to Enthalpy=                  0.070299
 Thermal correction to Gibbs Free Energy=         0.032524
 Sum of electronic and zero-point Energies=           -661.833949
 Sum of electronic and thermal Energies=              -661.827982
 Sum of electronic and thermal Enthalpies=            -661.827038
 Sum of electronic and thermal Free Energies=         -661.864813

                     E (Thermal)             CV                S
                      KCal/Mol        Cal/Mol-Kelvin    Cal/Mol-Kelvin
 Total                   43.521             21.668             79.504
 Electronic               0.000              0.000              1.377
 Translational            0.889              2.981             40.029
 Rotational               0.889              2.981             27.501
 Vibrational             41.743             15.706             10.596
 Vibration     1          0.613              1.918              2.867
 Vibration     2          0.637              1.844              2.157
 Vibration     3          0.691              1.678              1.430
 Vibration     4          0.816              1.345              0.774
 Vibration     5          0.837              1.294              0.710
 Vibration     6          0.926              1.096              0.504
 Vibration     7          0.938              1.072              0.483

 Optimization completed.
    -- Stationary point found.
 Normal termination of Gaussian 09 at Wed Mar  7 16:43:40 2018.
