 Gaussian 09, Revision B.01,
 Gaussian 09:  EM64L-G09RevB.01 12-Aug-2010

 -------------------------------------------------
 #p Temperature=298.15 opt freq UB3LYP/aug-cc-pVDZ
 -------------------------------------------------

 -------------------------------------
 Thiophene-2-UB3LYP-aug-cc-pVDZ-Duplet
 -------------------------------------
 Symbolic Z-matrix:
 Charge =  0 Multiplicity = 2

 SCF Done:  E(UB3LYP) =  -552.148203151     A.U. after   18 cycles
 SCF Done:  E(UB3LYP) =  -552.263789351     A.U. after   17 cycles
 SCF Done:  E(UB3LYP) =  -552.334648281     A.U. after   20 cycles
 SCF Done:  E(UB3LYP) =  -552.346277953     A.U. after   15 cycles
 SCF Done:  E(UB3LYP) =  -552.347518271     A.U. after   14 cycles
 SCF Done:  E(UB3LYP) =  -552.347684244     A.U. after   14 cycles
 SCF Done:  E(UB3LYP) =  -552.347706438     A.U. after   12 cycles
 SCF Done:  E(UB3LYP) =  -552.347707866     A.U. after   12 cycles
 SCF Done:  E(UB3LYP) =  -552.347708737     A.U. after   11 cycles
 SCF Done:  E(UB3LYP) =  -552.347709251     A.U. after   18 cycles
 Optimization completed.
    -- Stationary point found.
 Normal termination of Gaussian 09 at Wed Mar  7 16:46:40 2018.

 ----------------------------------------------------------------------
 #P Geom=AllCheck Guess=TCheck SCRF=Check GenChk UB3LYP/Aug-CC-pVDZ Fre
 q
 ----------------------------------------------------------------------

 Thiophene-2-UB3LYP-aug-cc-pVDZ-Duplet
 -------------------------------------
 Redundant internal coordinates taken from checkpoint file:
 Thiophene-2-UB3LYP-aug-cc-pVDZ-Duplet.chk
 Charge =  0 Multiplicity = 2

                         Standard orientation:
 ---------------------------------------------------------------------
 Center     Atomic      Atomic             Coordinates (Angstroms)
 Number     Number       Type             X           Y           Z
 ---------------------------------------------------------------------
      1          6           0        0.071461   -1.255910    0.000121
      2          6           0        1.323088   -0.726919   -0.000027
      3          1           0        2.249955   -1.296464   -0.000240
      4          6           0        1.240963    0.713128    0.000001
      5          1           0        2.118321    1.359431    0.000128
      6          6           0       -0.043689    1.190445   -0.000051
      7          1           0       -0.386977    2.221596    0.000280
      8         16           0       -1.220765   -0.113064   -0.000027
 ---------------------------------------------------------------------

 SCF Done:  E(UB3LYP) =  -552.347709251     A.U. after    1 cycles

 The electronic state is 2-A.
 Alpha  occ. eigenvalues --  -88.92794 -10.25015 -10.22542 -10.20975 -10.20706
 Alpha  occ. eigenvalues --   -7.98791  -5.95158  -5.94742  -5.94394  -0.89525
 Alpha  occ. eigenvalues --   -0.75113  -0.73167  -0.57183  -0.55028  -0.50829
 Alpha  occ. eigenvalues --   -0.42075  -0.40423  -0.39254  -0.36437  -0.29211
 Alpha  occ. eigenvalues --   -0.26642  -0.25408
 Alpha virt. eigenvalues --   -0.03338  -0.00790   0.00088   0.01527   0.01887
 Alpha virt. eigenvalues --    0.03110   0.03489   0.05382   0.05574   0.06549
 Alpha virt. eigenvalues --    0.08309   0.08438   0.09349   0.09761   0.10309

  Beta  occ. eigenvalues --  -88.92762 -10.23404 -10.22519 -10.20847 -10.20730
  Beta  occ. eigenvalues --   -7.98751  -5.95083  -5.94713  -5.94381  -0.88567
  Beta  occ. eigenvalues --   -0.74757  -0.71939  -0.56670  -0.54165  -0.49081
  Beta  occ. eigenvalues --   -0.41671  -0.39690  -0.38836  -0.36142  -0.26709
  Beta  occ. eigenvalues --   -0.24522
  Beta virt. eigenvalues --   -0.13202  -0.02382  -0.00739   0.00380   0.01636
  Beta virt. eigenvalues --    0.02188   0.03422   0.03706   0.05395   0.05764
  Beta virt. eigenvalues --    0.06803   0.08290   0.08471   0.09573   0.09934

 Mulliken atomic charges:
              1
     1  C   -0.685901
     2  C    0.836208
     3  H   -0.455942
     4  C    0.956307
     5  H   -0.548736
     6  C    0.139629
     7  H   -0.604988
     8  S    0.363423
 Sum of Mulliken atomic charges =   0.00000

 Dipole moment (field-independent basis, Debye):
    X=              0.7069    Y=              0.9274    Z=             -0.0001  Tot=              1.1661
 Quadrupole moment (field-independent basis, Debye-Ang):
   XX=            -33.4313   YY=            -34.0324   ZZ=            -39.8200
   XY=             -0.7684   XZ=             -0.0003   YZ=              0.0016

  Exact polarizability:  77.456  -0.378  67.479  -0.001  -0.004  44.182
 Approx polarizability: 137.604  -0.248 117.546  -0.001  -0.008  66.551

                     1                      2                      3
                     A                      A                      A
 Frequencies --   353.2174               517.5911               601.3378
 Red. masses --     3.9348                 3.3865                11.7529
 Frc consts  --     0.2892                 0.5345                 2.5040
 IR Inten    --     4.9576                 0.9020                 0.1385

                     4                      5                      6
                     A                      A                      A
 Frequencies --   674.6558               709.2748               773.5931
 Red. masses --     1.2400                 7.3357                 1.3279
 Frc consts  --     0.3325                 2.1743                 0.4682
 IR Inten    --    69.9527                 0.2997                26.5017

                     7                      8                      9
                     A                      A                      A
 Frequencies --   823.0124               843.8709               885.2269
 Red. masses --     4.2236                 7.6868                 1.3156
 Frc consts  --     1.6856                 3.2251                 0.6074
 IR Inten    --    21.5974                 7.7838                 0.0783

                    10                     11                     12
                     A                      A                      A
 Frequencies --  1032.3143              1088.4163              1211.7201
 Red. masses --     1.7580                 1.0987                 1.3975
 Frc consts  --     1.1038                 0.7668                 1.2090
 IR Inten    --     0.9117                 1.3014                15.5041

                    13                     14                     15
                     A                      A                      A
 Frequencies --  1329.4818              1428.1484              1551.2512
 Red. masses --     2.1032                 8.1046                 5.3525
 Frc consts  --     2.1902                 9.7394                 7.5888
 IR Inten    --     0.6344                17.7421                 1.3367

                    16                     17                     18
                     A                      A                      A
 Frequencies --  3202.8848              3227.3150              3248.6356
 Red. masses --     1.0888                 1.0949                 1.0987
 Frc consts  --     6.5806                 6.7192                 6.8316
 IR Inten    --     2.4157                 0.1124                 0.7911

 - Thermochemistry -
 -------------------
 Temperature   298.150 Kelvin.  Pressure   1.00000 Atm.
 Atom     1 has atomic number  6 and mass  12.00000

 Molecular mass:    82.99555 amu.
 Principal axes and moments of inertia in atomic units:
                           1         2         3
     Eigenvalues --   204.40566 345.76306 550.16872
           X            0.99981  -0.01969   0.00000
           Y            0.01969   0.99981   0.00002
           Z            0.00000  -0.00002   1.00000
 This molecule is an asymmetric top.
 Rotational symmetry number  1.
 Rotational temperatures (Kelvin)      0.42373     0.25050     0.15743
 Rotational constants (GHZ):           8.82921     5.21959     3.28034
 Zero-point vibrational energy     140572.9 (Joules/Mol)
                                   33.59772 (Kcal/Mol)
 Warning -- explicit consideration of   3 degrees of freedom as
           vibrations may cause significant error
 Vibrational temperatures:    508.20   744.70   865.19   970.68  1020.49
          (Kelvin)           1113.03  1184.13  1214.14  1273.64  1485.27
                             1565.99  1743.39  1912.83  2054.78  2231.90
                             4608.23  4643.38  4674.06

 Zero-point correction=                           0.053541 (Hartree/Particle)
 Thermal correction to Energy=                    0.057712
 Thermal correction to Enthalpy=                  0.058656
 Thermal correction to Gibbs Free Energy=         0.025619
 Sum of electronic and zero-point Energies=           -552.294168
 Sum of electronic and thermal Energies=              -552.289997
 Sum of electronic and thermal Enthalpies=            -552.289053
 Sum of electronic and thermal Free Energies=         -552.322091

                     E (Thermal)             CV                S
                      KCal/Mol        Cal/Mol-Kelvin    Cal/Mol-Kelvin
 Total                   36.215             14.994             69.533
 Electronic               0.000              0.000              1.377
 Translational            0.889              2.981             39.162
 Rotational               0.889              2.981             25.167
 Vibrational             34.437              9.033              3.826
 Vibration     1          0.729              1.569              1.152
 Vibration     2          0.873              1.211              0.616
 Vibration     3          0.960              1.029              0.447

 Optimization completed.
    -- Stationary point found.
 Normal termination of Gaussian 09 at Wed Mar  7 16:48:00 2018.
