 Gaussian 09, Revision B.01,
 Gaussian 09:  EM64L-G09RevB.01 12-Aug-2010

 -------------------------------------------------
 #p Temperature=298.15 opt freq UB3LYP/aug-cc-pVDZ
 -------------------------------------------------

 ---------------------------------------
 Thiophene-3+-UB3LYP-aug-cc-pVDZ-Triplet
 ---------------------------------------
 Symbolic Z-matrix:
 Charge =  1 Multiplicity = 3

 SCF Done:  E(UB3LYP) =  -551.838369670     A.U. after   18 cycles
 SCF Done:  E(UB3LYP) =  -551.949094621     A.U. after   18 cycles
 SCF Done:  E(UB3LYP) =  -552.015526073     A.U. after   19 cycles
 SCF Done:  E(UB3LYP) =  -552.023512298     A.U. after   16 cycles
 SCF Done:  E(UB3LYP) =  -552.025327039     A.U. after   16 cycles
 SCF Done:  E(UB3LYP) =  -552.025472240     A.U. after   14 cycles
 SCF Done:  E(UB3LYP) =  -552.025505562     A.U. after   14 cycles
 SCF Done:  E(UB3LYP) =  -552.025514046     A.U. after   18 cycles
 SCF Done:  E(UB3LYP) =  -552.025523676     A.U. after   13 cycles
 SCF Done:  E(UB3LYP) =  -552.025536471     A.U. after   14 cycles
 SCF Done:  E(UB3LYP) =  -552.025540497     A.U. after   13 cycles
 Optimization completed.
    -- Stationary point found.
 Normal termination of Gaussian 09 at Sun Jan 30 03:30:57 2005.

 ----------------------------------------------------------------------
 #P Geom=AllCheck Guess=TCheck SCRF=Check GenChk UB3LYP/Aug-CC-pVDZ Fre
 q
 ----------------------------------------------------------------------

 Thiophene-3+-UB3LYP-aug-cc-pVDZ-Triplet
 ---------------------------------------
 Redundant internal coordinates taken from checkpoint file:
 Thiophene-3+-UB3LYP-aug-cc-pVDZ-Triplet.chk
 Charge =  1 Multiplicity = 3

                         Standard orientation:
 ---------------------------------------------------------------------
 Center     Atomic      Atomic             Coordinates (Angstroms)
 Number     Number       Type             X           Y           Z
 ---------------------------------------------------------------------
      1          6           0       -1.053219    1.053843    0.000070
      2          6           0       -1.535435   -0.235293    0.000002
      3          1           0       -2.579442   -0.544471    0.000080
      4          6           0       -0.444731   -1.122257   -0.000158
      5          1           0       -0.480469   -2.213524    0.000388
      6          6           0        0.357531    1.221772   -0.000083
      7          1           0        0.921753    2.155680    0.000070
      8         16           0        1.137080   -0.306630    0.000030
 ---------------------------------------------------------------------

 SCF Done:  E(UB3LYP) =  -552.025540497     A.U. after    1 cycles

 The electronic state is 3-A.
 Alpha  occ. eigenvalues --  -89.16812 -10.50575 -10.49640 -10.48696 -10.44281
 Alpha  occ. eigenvalues --   -8.22707  -6.19026  -6.18666  -6.18339  -1.14410
 Alpha  occ. eigenvalues --   -0.99595  -0.97778  -0.82207  -0.79062  -0.73128
 Alpha  occ. eigenvalues --   -0.66470  -0.64430  -0.64160  -0.60241  -0.50931
 Alpha  occ. eigenvalues --   -0.50806  -0.50437
 Alpha virt. eigenvalues --   -0.29076  -0.20954  -0.19637  -0.15328  -0.14414
 Alpha virt. eigenvalues --   -0.12276  -0.11514  -0.10805  -0.10140  -0.08743
 Alpha virt. eigenvalues --   -0.06401  -0.06364  -0.05622  -0.04021  -0.03471

  Beta  occ. eigenvalues --  -89.16803 -10.49856 -10.48799 -10.46779 -10.44371
  Beta  occ. eigenvalues --   -8.22699  -6.19005  -6.18608  -6.18378  -1.12445
  Beta  occ. eigenvalues --   -0.98678  -0.94500  -0.80727  -0.77815  -0.70876
  Beta  occ. eigenvalues --   -0.65576  -0.63473  -0.60599  -0.59475  -0.49732
  Beta virt. eigenvalues --   -0.40177  -0.33657  -0.24852  -0.19926  -0.16353
  Beta virt. eigenvalues --   -0.15042  -0.13854  -0.12126  -0.10956  -0.10462
  Beta virt. eigenvalues --   -0.09940  -0.08151  -0.06086  -0.06019  -0.05368

 Mulliken atomic charges:
              1
     1  C   -0.105295
     2  C    0.964331
     3  H   -0.330383
     4  C    0.224090
     5  H   -0.460908
     6  C    0.384518
     7  H   -0.343948
     8  S    0.667594
 Sum of Mulliken atomic charges =   1.00000

 Dipole moment (field-independent basis, Debye):
    X=             -0.6406    Y=             -0.1020    Z=              0.0005  Tot=              0.6487
 Quadrupole moment (field-independent basis, Debye-Ang):
   XX=            -24.3010   YY=            -21.8469   ZZ=            -34.8271
   XY=              3.4245   XZ=             -0.0001   YZ=             -0.0007

  Exact polarizability:  65.702   0.946  62.271   0.000   0.001  34.215
 Approx polarizability: 118.338  -4.260 121.452   0.001   0.003  53.802

                     1                      2                      3
                     A                      A                      A
 Frequencies --   367.8029               481.5882               505.7108
 Red. masses --     2.8603                10.3273                 3.3380
 Frc consts  --     0.2280                 1.4112                 0.5030
 IR Inten    --     4.3684                 6.1294                 5.5792

                     4                      5                      6
                     A                      A                      A
 Frequencies --   599.8414               754.3706               801.5278
 Red. masses --     9.6943                 1.3297                 1.3272
 Frc consts  --     2.0551                 0.4458                 0.5024
 IR Inten    --     2.5407                59.4633                 0.4978

                     7                      8                      9
                     A                      A                      A
 Frequencies --   810.8191               835.9425               892.7482
 Red. masses --     5.4780                 4.1107                 1.4016
 Frc consts  --     2.1219                 1.6924                 0.6581
 IR Inten    --     6.1187                24.5274                 5.7094

                    10                     11                     12
                     A                      A                      A
 Frequencies --   997.7112              1072.1326              1189.9717
 Red. masses --     2.1348                 1.6285                 1.2704
 Frc consts  --     1.2520                 1.1029                 1.0599
 IR Inten    --    13.8835                11.2737                 0.6888

                    13                     14                     15
                     A                      A                      A
 Frequencies --  1273.1580              1315.9290              1471.2922
 Red. masses --     2.0543                 2.2709                 6.4539
 Frc consts  --     1.9619                 2.3170                 8.2313
 IR Inten    --    65.1969                 1.3593                18.8510

                    16                     17                     18
                     A                      A                      A
 Frequencies --  3216.2614              3226.9733              3236.1053
 Red. masses --     1.0913                 1.0946                 1.1006
 Frc consts  --     6.6511                 6.7157                 6.7909
 IR Inten    --    29.7306                51.8548                35.7559

 - Thermochemistry -
 -------------------
 Temperature   298.150 Kelvin.  Pressure   1.00000 Atm.
 Atom     1 has atomic number  6 and mass  12.00000

 Molecular mass:    82.99555 amu.
 Principal axes and moments of inertia in atomic units:
                           1         2         3
     Eigenvalues --   212.06069 339.77215 551.83284
           X            0.99219   0.12472   0.00000
           Y           -0.12472   0.99219  -0.00001
           Z            0.00000   0.00001   1.00000
 This molecule is an asymmetric top.
 Rotational symmetry number  1.
 Rotational temperatures (Kelvin)      0.40844     0.25492     0.15696
 Rotational constants (GHZ):           8.51049     5.31162     3.27045
 Zero-point vibrational energy     137868.9 (Joules/Mol)
                                   32.95147 (Kcal/Mol)
 Warning -- explicit consideration of   4 degrees of freedom as
           vibrations may cause significant error
 Vibrational temperatures:    529.19   692.90   727.60   863.04  1085.37
          (Kelvin)           1153.22  1166.59  1202.73  1284.46  1435.48
                             1542.56  1712.10  1831.79  1893.33  2116.86
                             4627.48  4642.89  4656.03

 Zero-point correction=                           0.052512 (Hartree/Particle)
 Thermal correction to Energy=                    0.056785
 Thermal correction to Enthalpy=                  0.057729
 Thermal correction to Gibbs Free Energy=         0.024149
 Sum of electronic and zero-point Energies=           -551.973029
 Sum of electronic and thermal Energies=              -551.968755
 Sum of electronic and thermal Enthalpies=            -551.967811
 Sum of electronic and thermal Free Energies=         -552.001392

                     E (Thermal)             CV                S
                      KCal/Mol        Cal/Mol-Kelvin    Cal/Mol-Kelvin
 Total                   35.633             15.455             70.677
 Electronic               0.000              0.000              2.183
 Translational            0.889              2.981             39.162
 Rotational               0.889              2.981             25.189
 Vibrational             33.856              9.493              4.142
 Vibration     1          0.740              1.538              1.089
 Vibration     2          0.838              1.291              0.706
 Vibration     3          0.861              1.237              0.644
 Vibration     4          0.958              1.032              0.450

 Optimization completed.
    -- Stationary point found.
 Normal termination of Gaussian 09 at Sun Jan 30 03:32:15 2005.
