 Gaussian 09, Revision B.01,
 Gaussian 09:  EM64L-G09RevB.01 12-Aug-2010

 -------------------------------------------------
 #p Temperature=298.15 opt freq UB3LYP/aug-cc-pVDZ
 -------------------------------------------------

 -------------------------------------
 Thiophene-3-UB3LYP-aug-cc-pVDZ-Duplet
 -------------------------------------
 Symbolic Z-matrix:
 Charge =  0 Multiplicity = 2

 SCF Done:  E(UB3LYP) =  -552.178959170     A.U. after   15 cycles
 SCF Done:  E(UB3LYP) =  -552.284337791     A.U. after   15 cycles
 SCF Done:  E(UB3LYP) =  -552.340996040     A.U. after   17 cycles
 SCF Done:  E(UB3LYP) =  -552.350243556     A.U. after   15 cycles
 SCF Done:  E(UB3LYP) =  -552.351711399     A.U. after   15 cycles
 SCF Done:  E(UB3LYP) =  -552.351941524     A.U. after   13 cycles
 SCF Done:  E(UB3LYP) =  -552.352007345     A.U. after   18 cycles
 SCF Done:  E(UB3LYP) =  -552.352018069     A.U. after   12 cycles
 SCF Done:  E(UB3LYP) =  -552.352029116     A.U. after   18 cycles
 SCF Done:  E(UB3LYP) =  -552.352031544     A.U. after   11 cycles
 Optimization completed.
    -- Stationary point found.
 Normal termination of Gaussian 09 at Wed Mar  7 17:22:54 2018.

 ----------------------------------------------------------------------
 #P Geom=AllCheck Guess=TCheck SCRF=Check GenChk UB3LYP/Aug-CC-pVDZ Fre
 q
 ----------------------------------------------------------------------

 Thiophene-3-UB3LYP-aug-cc-pVDZ-Duplet
 -------------------------------------
 Redundant internal coordinates taken from checkpoint file:
 Thiophene-3-UB3LYP-aug-cc-pVDZ-Duplet.chk
 Charge =  0 Multiplicity = 2

                         Standard orientation:
 ---------------------------------------------------------------------
 Center     Atomic      Atomic             Coordinates (Angstroms)
 Number     Number       Type             X           Y           Z
 ---------------------------------------------------------------------
      1          6           0        0.999330    1.083596   -0.000326
      2          6           0        1.493630   -0.246165    0.000315
      3          1           0        2.542932   -0.531900    0.000648
      4          6           0        0.442839   -1.132821   -0.000327
      5          1           0        0.480381   -2.219379   -0.000141
      6          6           0       -0.340188    1.263430    0.000012
      7          1           0       -0.944508    2.164609    0.000311
      8         16           0       -1.103279   -0.326348    0.000071
 ---------------------------------------------------------------------

 SCF Done:  E(UB3LYP) =  -552.352031544     A.U. after    1 cycles

 The electronic state is 2-A.
 Alpha  occ. eigenvalues --  -88.92487 -10.23020 -10.22782 -10.22594 -10.21075
 Alpha  occ. eigenvalues --   -7.98478  -5.94827  -5.94491  -5.94080  -0.89525
 Alpha  occ. eigenvalues --   -0.74620  -0.73672  -0.58080  -0.55533  -0.49846
 Alpha  occ. eigenvalues --   -0.43262  -0.40691  -0.39237  -0.36908  -0.26871
 Alpha  occ. eigenvalues --   -0.26768  -0.25336
 Alpha virt. eigenvalues --   -0.03365  -0.00556  -0.00071   0.01494   0.02538
 Alpha virt. eigenvalues --    0.03110   0.03367   0.05351   0.05589   0.06511
 Alpha virt. eigenvalues --    0.08239   0.08601   0.09485   0.10083   0.10206

  Beta  occ. eigenvalues --  -88.92428 -10.22912 -10.22660 -10.21256 -10.21031
  Beta  occ. eigenvalues --   -7.98416  -5.94716  -5.94359  -5.94057  -0.88636
  Beta  occ. eigenvalues --   -0.74201  -0.72297  -0.57643  -0.54901  -0.48156
  Beta  occ. eigenvalues --   -0.42620  -0.40140  -0.38882  -0.36190  -0.26244
  Beta  occ. eigenvalues --   -0.25087
  Beta virt. eigenvalues --   -0.11643  -0.03213  -0.00524   0.00193   0.01623
  Beta virt. eigenvalues --    0.02737   0.03208   0.04463   0.05393   0.06281
  Beta virt. eigenvalues --    0.06764   0.08219   0.08623   0.09584   0.10095

 Mulliken atomic charges:
              1
     1  C   -0.340559
     2  C    0.777755
     3  H   -0.451466
     4  C    0.222168
     5  H   -0.583591
     6  C    0.425528
     7  H   -0.479469
     8  S    0.429634
 Sum of Mulliken atomic charges =   0.00000

 Dipole moment (field-independent basis, Debye):
    X=              0.0204    Y=             -0.5650    Z=              0.0012  Tot=              0.5654
 Quadrupole moment (field-independent basis, Debye-Ang):
   XX=            -34.7576   YY=            -32.9865   ZZ=            -39.8434
   XY=             -3.0092   XZ=              0.0008   YZ=              0.0012

  Exact polarizability:  76.213   0.631  70.762  -0.002  -0.001  44.155
 Approx polarizability: 138.471   4.330 124.088  -0.006   0.005  66.711

                     1                      2                      3
                     A                      A                      A
 Frequencies --   434.5745               542.6398               595.3349
 Red. masses --     4.9215                 3.9836                10.0999
 Frc consts  --     0.5476                 0.6911                 2.1091
 IR Inten    --     0.5758                10.0176                 1.1080

                     4                      5                      6
                     A                      A                      A
 Frequencies --   632.0380               722.0370               734.1898
 Red. masses --     1.2641                 9.2532                 1.1787
 Frc consts  --     0.2975                 2.8422                 0.3743
 IR Inten    --     0.1740                 0.1768                98.8346

                     7                      8                      9
                     A                      A                      A
 Frequencies --   782.9016               848.0647               866.0561
 Red. masses --     4.8818                 4.6374                 1.2864
 Frc consts  --     1.7630                 1.9651                 0.5685
 IR Inten    --    17.5733                 1.8440                 0.1819

                    10                     11                     12
                     A                      A                      A
 Frequencies --  1056.6536              1085.5205              1170.9191
 Red. masses --     1.8010                 1.1263                 1.3654
 Frc consts  --     1.1847                 0.7820                 1.1029
 IR Inten    --     9.6081                 5.1580                 3.4827

                    13                     14                     15
                     A                      A                      A
 Frequencies --  1341.6874              1440.1508              1519.2232
 Red. masses --     2.0692                 6.2891                 7.7645
 Frc consts  --     2.1946                 7.6852                10.5586
 IR Inten    --     1.2747                 6.0909                 3.0030

                    16                     17                     18
                     A                      A                      A
 Frequencies --  3224.9369              3246.9769              3264.9069
 Red. masses --     1.0883                 1.1001                 1.0962
 Frc consts  --     6.6689                 6.8332                 6.8845
 IR Inten    --     0.5297                 0.1155                 3.5989

 - Thermochemistry -
 -------------------
 Temperature   298.150 Kelvin.  Pressure   1.00000 Atm.
 Atom     1 has atomic number  6 and mass  12.00000

 Molecular mass:    82.99555 amu.
 Principal axes and moments of inertia in atomic units:
                           1         2         3
     Eigenvalues --   221.46456 320.47142 541.93595
           X            0.98679  -0.16202   0.00001
           Y            0.16202   0.98679   0.00001
           Z           -0.00002  -0.00001   1.00000
 This molecule is an asymmetric top.
 Rotational symmetry number  1.
 Rotational temperatures (Kelvin)      0.39110     0.27027     0.15982
 Rotational constants (GHZ):           8.14912     5.63152     3.33017
 Zero-point vibrational energy     140613.9 (Joules/Mol)
                                   33.60753 (Kcal/Mol)
 Warning -- explicit consideration of   3 degrees of freedom as
           vibrations may cause significant error
 Vibrational temperatures:    625.25   780.74   856.55   909.36  1038.85
          (Kelvin)           1056.33  1126.42  1220.17  1246.06  1520.29
                             1561.82  1684.69  1930.39  2072.05  2185.82
                             4639.96  4671.67  4697.47

 Zero-point correction=                           0.053557 (Hartree/Particle)
 Thermal correction to Energy=                    0.057676
 Thermal correction to Enthalpy=                  0.058620
 Thermal correction to Gibbs Free Energy=         0.025697
 Sum of electronic and zero-point Energies=           -552.298475
 Sum of electronic and thermal Energies=              -552.294355
 Sum of electronic and thermal Enthalpies=            -552.293411
 Sum of electronic and thermal Free Energies=         -552.326335

                     E (Thermal)             CV                S
                      KCal/Mol        Cal/Mol-Kelvin    Cal/Mol-Kelvin
 Total                   36.192             15.001             69.293
 Electronic               0.000              0.000              1.377
 Translational            0.889              2.981             39.162
 Rotational               0.889              2.981             25.156
 Vibrational             34.415              9.040              3.597
 Vibration     1          0.795              1.395              0.844
 Vibration     2          0.898              1.156              0.560
 Vibration     3          0.953              1.042              0.458

 Optimization completed.
    -- Stationary point found.
 Normal termination of Gaussian 09 at Wed Mar  7 17:24:14 2018.
