 Gaussian 09, Revision B.01,
 Gaussian 09:  EM64L-G09RevB.01 12-Aug-2010

 -------------------------------------------------
 #p Temperature=298.15 opt freq UB3LYP/aug-cc-pVDZ
 -------------------------------------------------

 ------------------------------------------
 Thiophene-3-N2+-UB3LYP-aug-cc-pVDZ-Triplet
 ------------------------------------------
 Symbolic Z-matrix:
 Charge =  1 Multiplicity = 3

 SCF Done:  E(UB3LYP) =  -661.350247279     A.U. after   44 cycles
 SCF Done:  E(UB3LYP) =  -661.466313876     A.U. after   22 cycles
 SCF Done:  E(UB3LYP) =  -661.535819934     A.U. after   19 cycles
 SCF Done:  E(UB3LYP) =  -661.551201391     A.U. after   19 cycles
 SCF Done:  E(UB3LYP) =  -661.552904507     A.U. after   19 cycles
 SCF Done:  E(UB3LYP) =  -661.552746298     A.U. after   20 cycles
 SCF Done:  E(UB3LYP) =  -661.553199297     A.U. after   18 cycles
 SCF Done:  E(UB3LYP) =  -661.553483623     A.U. after   18 cycles
 SCF Done:  E(UB3LYP) =  -661.553545626     A.U. after   16 cycles
 SCF Done:  E(UB3LYP) =  -661.553620237     A.U. after   25 cycles
 SCF Done:  E(UB3LYP) =  -661.559772144     A.U. after   18 cycles
 SCF Done:  E(UB3LYP) =  -661.560778493     A.U. after   17 cycles
 SCF Done:  E(UB3LYP) =  -661.561131321     A.U. after   17 cycles
 SCF Done:  E(UB3LYP) =  -661.561405473     A.U. after   18 cycles
 SCF Done:  E(UB3LYP) =  -661.561508115     A.U. after   17 cycles
 SCF Done:  E(UB3LYP) =  -661.561560354     A.U. after   16 cycles
 SCF Done:  E(UB3LYP) =  -661.561571508     A.U. after   14 cycles
 SCF Done:  E(UB3LYP) =  -661.561574286     A.U. after   14 cycles
 SCF Done:  E(UB3LYP) =  -661.561574668     A.U. after   13 cycles
 Optimization completed.
    -- Stationary point found.
 Normal termination of Gaussian 09 at Sun Jan 30 03:20:34 2005.

 ----------------------------------------------------------------------
 #P Geom=AllCheck Guess=TCheck SCRF=Check GenChk UB3LYP/Aug-CC-pVDZ Fre
 q
 ----------------------------------------------------------------------

 Thiophene-3-N2+-UB3LYP-aug-cc-pVDZ-Triplet
 ------------------------------------------
 Redundant internal coordinates taken from checkpoint file:
 Thiophene-3-N2+-UB3LYP-aug-cc-pVDZ-Triplet.chk
 Charge =  1 Multiplicity = 3

                         Standard orientation:
 ---------------------------------------------------------------------
 Center     Atomic      Atomic             Coordinates (Angstroms)
 Number     Number       Type             X           Y           Z
 ---------------------------------------------------------------------
      1          7           0       -2.118742    0.296841   -0.201283
      2          7           0       -2.844178   -0.545937    0.223740
      3          6           0       -0.703670    0.257829   -0.065581
      4          6           0        0.092149    1.400028    0.008174
      5          1           0       -0.288571    2.419932    0.013501
      6          6           0        1.441987    1.067304    0.072834
      7          1           0        2.291883    1.746624    0.146246
      8          6           0        0.062245   -0.969919   -0.068609
      9          1           0       -0.352630   -1.977679   -0.119033
     10         16           0        1.733343   -0.686041    0.007574
 ---------------------------------------------------------------------

 SCF Done:  E(UB3LYP) =  -661.561574668     A.U. after    1 cycles

 The electronic state is 3-A.
 Alpha  occ. eigenvalues --  -89.16755 -14.61996 -14.60538 -10.50129 -10.50028
 Alpha  occ. eigenvalues --  -10.48840 -10.43756  -8.22664  -6.18959  -6.18570
 Alpha  occ. eigenvalues --   -6.18348  -1.27807  -1.14085  -1.01681  -0.98671
 Alpha  occ. eigenvalues --   -0.88923  -0.82183  -0.78201  -0.70256  -0.67718
 Alpha  occ. eigenvalues --   -0.66598  -0.65626  -0.63852  -0.61125  -0.60110
 Alpha  occ. eigenvalues --   -0.58983  -0.50762  -0.49727  -0.40869
 Alpha virt. eigenvalues --   -0.30006  -0.24684  -0.21002  -0.17322  -0.15165
 Alpha virt. eigenvalues --   -0.14549  -0.12698  -0.12046  -0.10300  -0.10171
 Alpha virt. eigenvalues --   -0.08215  -0.06545  -0.06214  -0.05824  -0.04320

  Beta  occ. eigenvalues --  -89.16780 -14.61691 -14.58751 -10.49431 -10.49352
  Beta  occ. eigenvalues --  -10.48157 -10.43915  -8.22690  -6.19002  -6.18606
  Beta  occ. eigenvalues --   -6.18383  -1.25758  -1.12866  -1.00569  -0.96792
  Beta  occ. eigenvalues --   -0.87040  -0.81157  -0.77553  -0.68895  -0.65889
  Beta  occ. eigenvalues --   -0.64766  -0.64091  -0.61597  -0.59473  -0.58661
  Beta  occ. eigenvalues --   -0.56035  -0.49503
  Beta virt. eigenvalues --   -0.40275  -0.26711  -0.25748  -0.22428  -0.20313
  Beta virt. eigenvalues --   -0.15368  -0.14734  -0.14294  -0.12368  -0.11829
  Beta virt. eigenvalues --   -0.10147  -0.10005  -0.08012  -0.06217  -0.06060

 Mulliken atomic charges:
              1
     1  N    0.013411
     2  N   -0.386078
     3  C    0.513900
     4  C    1.189681
     5  H   -0.475619
     6  C    0.041192
     7  H   -0.478743
     8  C    0.518975
     9  H   -0.527427
    10  S    0.590708
 Sum of Mulliken atomic charges =   1.00000

 Dipole moment (field-independent basis, Debye):
    X=              3.5852    Y=              0.8654    Z=             -0.0569  Tot=              3.6886
 Quadrupole moment (field-independent basis, Debye-Ang):
   XX=            -35.0485   YY=            -31.9447   ZZ=            -45.0251
   XY=              2.0527   XZ=              0.6842   YZ=              1.2154

  Exact polarizability: 109.660   5.645  74.451  -0.076  -0.421  41.999
 Approx polarizability: 194.491  16.920 134.093   0.560  -2.119  68.323

                     1                      2                      3
                     A                      A                      A
 Frequencies --    71.6970               161.8224               258.7982
 Red. masses --     9.4380                 7.5699                 8.2380
 Frc consts  --     0.0286                 0.1168                 0.3251
 IR Inten    --     4.8824                 1.5502                 9.3921

                     4                      5                      6
                     A                      A                      A
 Frequencies --   382.1470               432.2081               493.7225
 Red. masses --     2.9602                 7.7616                 6.5331
 Frc consts  --     0.2547                 0.8543                 0.9383
 IR Inten    --     4.1022                16.9524                 4.1471

                     7                      8                      9
                     A                      A                      A
 Frequencies --   599.2236               617.5029               693.1635
 Red. masses --     3.3375                 8.6718                 6.1856
 Frc consts  --     0.7061                 1.9482                 1.7511
 IR Inten    --     5.8623                 1.4740                 3.5465

                    10                     11                     12
                     A                      A                      A
 Frequencies --   775.2696               805.7886               886.0535
 Red. masses --     1.3264                 1.5485                 3.2547
 Frc consts  --     0.4697                 0.5924                 1.5055
 IR Inten    --    37.0936                18.3393                27.4525

                    13                     14                     15
                     A                      A                      A
 Frequencies --   901.5720               915.7011              1044.1066
 Red. masses --     5.2111                 1.4138                 1.4612
 Frc consts  --     2.4956                 0.6985                 0.9386
 IR Inten    --    14.2699                 9.0044                55.4277

                    16                     17                     18
                     A                      A                      A
 Frequencies --  1129.8529              1221.6400              1337.0979
 Red. masses --     1.8651                 1.4315                 2.6139
 Frc consts  --     1.4028                 1.2587                 2.7534
 IR Inten    --     1.9718                11.8263                51.2467

                    19                     20                     21
                     A                      A                      A
 Frequencies --  1343.4987              1464.2463              1777.9181
 Red. masses --     3.3257                 4.7892                13.7042
 Frc consts  --     3.5367                 6.0498                25.5227
 IR Inten    --   133.3086                80.1935                32.3259

                    22                     23                     24
                     A                      A                      A
 Frequencies --  3223.9758              3227.1432              3239.6197
 Red. masses --     1.0923                 1.0933                 1.1027
 Frc consts  --     6.6890                 6.7082                 6.8184
 IR Inten    --    38.0881                22.3359                35.5885

 - Thermochemistry -
 -------------------
 Temperature   298.150 Kelvin.  Pressure   1.00000 Atm.
 Atom     1 has atomic number  7 and mass  14.00307

 Molecular mass:   111.00169 amu.
 Principal axes and moments of inertia in atomic units:
                           1         2         3
     Eigenvalues --   300.032201107.958361397.45694
           X            0.99985   0.01753   0.00129
           Y           -0.01754   0.99983   0.00648
           Z           -0.00118  -0.00650   0.99998
 This molecule is an asymmetric top.
 Rotational symmetry number  1.
 Rotational temperatures (Kelvin)      0.28868     0.07817     0.06198
 Rotational constants (GHZ):           6.01516     1.62889     1.29145
 Zero-point vibrational energy     161518.4 (Joules/Mol)
                                   38.60383 (Kcal/Mol)
 Warning -- explicit consideration of   8 degrees of freedom as
           vibrations may cause significant error
 Vibrational temperatures:    103.16   232.83   372.35   549.82   621.85
          (Kelvin)            710.36   862.15   888.45   997.31  1115.44
                             1159.35  1274.83  1297.16  1317.49  1502.23
                             1625.60  1757.67  1923.78  1932.99  2106.72
                             2558.02  4638.58  4643.13  4661.08

 Zero-point correction=                           0.061519 (Hartree/Particle)
 Thermal correction to Energy=                    0.067920
 Thermal correction to Enthalpy=                  0.068864
 Thermal correction to Gibbs Free Energy=         0.029440
 Sum of electronic and zero-point Energies=           -661.500056
 Sum of electronic and thermal Energies=              -661.493655
 Sum of electronic and thermal Enthalpies=            -661.492711
 Sum of electronic and thermal Free Energies=         -661.532134

                     E (Thermal)             CV                S
                      KCal/Mol        Cal/Mol-Kelvin    Cal/Mol-Kelvin
 Total                   42.620             22.589             82.974
 Electronic               0.000              0.000              2.183
 Translational            0.889              2.981             40.029
 Rotational               0.889              2.981             27.632
 Vibrational             40.843             16.627             13.130
 Vibration     1          0.598              1.968              4.106
 Vibration     2          0.622              1.889              2.528
 Vibration     3          0.668              1.748              1.670
 Vibration     4          0.752              1.508              1.031
 Vibration     5          0.793              1.400              0.851
 Vibration     6          0.849              1.264              0.674
 Vibration     7          0.957              1.033              0.451
 Vibration     8          0.977              0.995              0.421

 Optimization completed.
    -- Stationary point found.
 Normal termination of Gaussian 09 at Sun Jan 30 03:24:30 2005.
