 Gaussian 09, Revision B.01,
 Gaussian 09:  EM64L-G09RevB.01 12-Aug-2010

 -------------------------------------------------
 #p Temperature=298.15 opt freq UB3LYP/aug-cc-pVDZ
 -------------------------------------------------

 ---------------------------------------
 Thiophene-3+-UB3LYP-aug-cc-pVDZ-Singlet
 ---------------------------------------
 Symbolic Z-matrix:
 Charge =  1 Multiplicity = 1

 SCF Done:  E(UB3LYP) =  -551.811539278     A.U. after   44 cycles
 SCF Done:  E(UB3LYP) =  -551.922253305     A.U. after   18 cycles
 SCF Done:  E(UB3LYP) =  -552.009541529     A.U. after   15 cycles
 SCF Done:  E(UB3LYP) =  -552.024870879     A.U. after   13 cycles
 SCF Done:  E(UB3LYP) =  -552.026469040     A.U. after   13 cycles
 SCF Done:  E(UB3LYP) =  -552.027174459     A.U. after   14 cycles
 SCF Done:  E(UB3LYP) =  -552.027366928     A.U. after   11 cycles
 SCF Done:  E(UB3LYP) =  -552.027442658     A.U. after   11 cycles
 SCF Done:  E(UB3LYP) =  -552.027484091     A.U. after   10 cycles
 SCF Done:  E(UB3LYP) =  -552.027500704     A.U. after   15 cycles
 SCF Done:  E(UB3LYP) =  -552.027508381     A.U. after   10 cycles
 SCF Done:  E(UB3LYP) =  -552.027509399     A.U. after   15 cycles
 Optimization completed.
    -- Stationary point found.
 Normal termination of Gaussian 09 at Fri Mar  9 22:54:19 2018.

 ----------------------------------------------------------------------
 #P Geom=AllCheck Guess=TCheck SCRF=Check GenChk UB3LYP/Aug-CC-pVDZ Fre
 q
 ----------------------------------------------------------------------

 Thiophene-3+-UB3LYP-aug-cc-pVDZ-Singlet
 ---------------------------------------
 Redundant internal coordinates taken from checkpoint file:
 Thiophene-3+-UB3LYP-aug-cc-pVDZ-Singlet.chk
 Charge =  1 Multiplicity = 1

                         Standard orientation:
 ---------------------------------------------------------------------
 Center     Atomic      Atomic             Coordinates (Angstroms)
 Number     Number       Type             X           Y           Z
 ---------------------------------------------------------------------
      1          6           0       -0.556900    1.107222   -0.000152
      2          6           0       -1.575973    0.169427   -0.000029
      3          1           0       -2.655614    0.284529   -0.000357
      4          6           0       -0.781422   -0.951778    0.000322
      5          1           0       -1.089430   -1.997333   -0.000004
      6          6           0        0.741461    1.202999    0.000106
      7          1           0        1.556446    1.919007    0.000618
      8         16           0        0.951600   -0.585839   -0.000109
 ---------------------------------------------------------------------

 SCF Done:  E(UB3LYP) =  -552.027509399     A.U. after    1 cycles

 The electronic state is 1-A.
 Alpha  occ. eigenvalues --  -89.17480 -10.53542 -10.48011 -10.46964 -10.45429
 Alpha  occ. eigenvalues --   -8.23167  -6.19608  -6.19244  -6.18582  -1.16055
 Alpha  occ. eigenvalues --   -1.00824  -0.96532  -0.81653  -0.78842  -0.72236
 Alpha  occ. eigenvalues --   -0.70755  -0.64068  -0.63015  -0.59259  -0.49613
 Alpha  occ. eigenvalues --   -0.49077
 Alpha virt. eigenvalues --   -0.36764  -0.25842  -0.19301  -0.18342  -0.16907
 Alpha virt. eigenvalues --   -0.14539  -0.12212  -0.11366  -0.10616  -0.09709
 Alpha virt. eigenvalues --   -0.09176  -0.06233  -0.05941  -0.05517  -0.04357

  Beta  occ. eigenvalues --  -89.17480 -10.53542 -10.48011 -10.46964 -10.45429
  Beta  occ. eigenvalues --   -8.23167  -6.19608  -6.19244  -6.18582  -1.16055
  Beta  occ. eigenvalues --   -1.00824  -0.96532  -0.81653  -0.78842  -0.72236
  Beta  occ. eigenvalues --   -0.70755  -0.64068  -0.63015  -0.59259  -0.49613
  Beta  occ. eigenvalues --   -0.49077
  Beta virt. eigenvalues --   -0.36764  -0.25842  -0.19301  -0.18342  -0.16907
  Beta virt. eigenvalues --   -0.14539  -0.12212  -0.11366  -0.10616  -0.09709
  Beta virt. eigenvalues --   -0.09176  -0.06233  -0.05941  -0.05517  -0.04357

 Mulliken atomic charges:
              1
     1  C    0.351917
     2  C    1.001509
     3  H   -0.442354
     4  C    0.163190
     5  H   -0.475539
     6  C    0.331712
     7  H   -0.576175
     8  S    0.645740
 Sum of Mulliken atomic charges =   1.00000

 Dipole moment (field-independent basis, Debye):
    X=             -0.9975    Y=              1.2130    Z=              0.0000  Tot=              1.5705
 Quadrupole moment (field-independent basis, Debye-Ang):
   XX=            -20.5838   YY=            -21.6301   ZZ=            -36.3161
   XY=              2.2151   XZ=              0.0020   YZ=              0.0018

  Exact polarizability:  66.311   0.582  60.142   0.001  -0.003  34.855
 Approx polarizability: 135.254  -7.805 124.900   0.000  -0.009  52.983

                     1                      2                      3
                     A                      A                      A
 Frequencies --   252.9645               432.0937               488.7884
 Red. masses --     2.7927                 1.8777                 3.4155
 Frc consts  --     0.1053                 0.2066                 0.4808
 IR Inten    --     1.7375                 0.2011                 3.4632

                     4                      5                      6
                     A                      A                      A
 Frequencies --   497.7633               647.3457               656.0607
 Red. masses --     7.9620                 7.5908                 6.0119
 Frc consts  --     1.1623                 1.8742                 1.5246
 IR Inten    --    18.1900                 0.5686                 1.6079

                     7                      8                      9
                     A                      A                      A
 Frequencies --   678.8129               805.3603               835.7114
 Red. masses --     1.1115                 4.6296                 1.2751
 Frc consts  --     0.3018                 1.7692                 0.5247
 IR Inten    --   119.8901                 2.1537                 0.0207

                    10                     11                     12
                     A                      A                      A
 Frequencies --   990.0711              1060.8944              1087.4655
 Red. masses --     1.3521                 1.2068                 1.7342
 Frc consts  --     0.7809                 0.8002                 1.2083
 IR Inten    --    30.6979                15.8091                 1.3168

                    13                     14                     15
                     A                      A                      A
 Frequencies --  1290.4037              1412.0290              1757.5155
 Red. masses --     1.9526                 6.1667                 7.8506
 Frc consts  --     1.9156                 7.2442                14.2873
 IR Inten    --    21.9392                10.3537                14.0711

                    16                     17                     18
                     A                      A                      A
 Frequencies --  3222.8265              3266.3486              3289.7060
 Red. masses --     1.0936                 1.1048                 1.1107
 Frc consts  --     6.6926                 6.9449                 7.0821
 IR Inten    --    60.1436               104.3128               164.5717

 - Thermochemistry -
 -------------------
 Temperature   298.150 Kelvin.  Pressure   1.00000 Atm.
 Atom     1 has atomic number  6 and mass  12.00000

 Molecular mass:    82.99555 amu.
 Principal axes and moments of inertia in atomic units:
                           1         2         3
     Eigenvalues --   219.06103 313.63941 532.70043
           X            0.98601   0.16666   0.00002
           Y           -0.16666   0.98601   0.00002
           Z           -0.00002  -0.00002   1.00000
 This molecule is an asymmetric top.
 Rotational symmetry number  1.
 Rotational temperatures (Kelvin)      0.39539     0.27616     0.16259
 Rotational constants (GHZ):           8.23853     5.75419     3.38791
 Zero-point vibrational energy     135609.6 (Joules/Mol)
                                   32.41148 (Kcal/Mol)
 Warning -- explicit consideration of   4 degrees of freedom as
           vibrations may cause significant error
 Vibrational temperatures:    363.96   621.69   703.26   716.17   931.38
          (Kelvin)            943.92   976.66  1158.73  1202.40  1424.49
                             1526.39  1564.62  1856.60  2031.59  2528.67
                             4636.92  4699.54  4733.15

 Zero-point correction=                           0.051651 (Hartree/Particle)
 Thermal correction to Energy=                    0.056352
 Thermal correction to Enthalpy=                  0.057296
 Thermal correction to Gibbs Free Energy=         0.024075
 Sum of electronic and zero-point Energies=           -551.975858
 Sum of electronic and thermal Energies=              -551.971158
 Sum of electronic and thermal Enthalpies=            -551.970213
 Sum of electronic and thermal Free Energies=         -552.003435

                     E (Thermal)             CV                S
                      KCal/Mol        Cal/Mol-Kelvin    Cal/Mol-Kelvin
 Total                   35.361             16.883             69.920
 Electronic               0.000              0.000              0.000
 Translational            0.889              2.981             39.162
 Rotational               0.889              2.981             25.107
 Vibrational             33.584             10.921              5.651
 Vibration     1          0.664              1.758              1.710
 Vibration     2          0.793              1.400              0.852
 Vibration     3          0.845              1.275              0.687
 Vibration     4          0.853              1.255              0.664

 Optimization completed.
    -- Stationary point found.
 Normal termination of Gaussian 09 at Fri Mar  9 22:55:35 2018.
