 Gaussian 09, Revision B.01,
 Gaussian 09:  EM64L-G09RevB.01 12-Aug-2010

 -------------------------------------------------
 #p Temperature=298.15 opt freq UB3LYP/aug-cc-pVDZ
 -------------------------------------------------

 ------------------------------------------
 Thiophene-2-N2+-UB3LYP-aug-cc-pVDZ-Singlet
 ------------------------------------------
 Symbolic Z-matrix:
 Charge =  1 Multiplicity = 1

 SCF Done:  E(UB3LYP) =  -661.426961201     A.U. after   16 cycles
 SCF Done:  E(UB3LYP) =  -661.549935159     A.U. after   13 cycles
 SCF Done:  E(UB3LYP) =  -661.628798585     A.U. after   15 cycles
 SCF Done:  E(UB3LYP) =  -661.640108465     A.U. after   13 cycles
 SCF Done:  E(UB3LYP) =  -661.641840299     A.U. after   12 cycles
 SCF Done:  E(UB3LYP) =  -661.642040010     A.U. after   16 cycles
 SCF Done:  E(UB3LYP) =  -661.641929825     A.U. after   12 cycles
 SCF Done:  E(UB3LYP) =  -661.642059909     A.U. after   12 cycles
 SCF Done:  E(UB3LYP) =  -661.642081519     A.U. after   16 cycles
 Optimization completed.
    -- Stationary point found.
 Normal termination of Gaussian 09 at Fri Mar  9 22:27:59 2018.

 ----------------------------------------------------------------------
 #P Geom=AllCheck Guess=TCheck SCRF=Check GenChk UB3LYP/Aug-CC-pVDZ Fre
 q
 ----------------------------------------------------------------------

 Thiophene-2-N2+-UB3LYP-aug-cc-pVDZ-Singlet
 ------------------------------------------
 Redundant internal coordinates taken from checkpoint file:
 Thiophene-2-N2+-UB3LYP-aug-cc-pVDZ-Singlet.chk
 Charge =  1 Multiplicity = 1

                         Standard orientation:
 ---------------------------------------------------------------------
 Center     Atomic      Atomic             Coordinates (Angstroms)
 Number     Number       Type             X           Y           Z
 ---------------------------------------------------------------------
      1          7           0       -1.823840    0.107475   -0.000495
      2          7           0       -2.940453    0.015939    0.000281
      3          6           0       -0.481405    0.201580   -0.000011
      4          6           0        0.239439    1.402320    0.000175
      5          1           0       -0.225857    2.386566    0.000291
      6          6           0        1.618584    1.147334   -0.000091
      7          1           0        2.380519    1.924042    0.000005
      8          6           0        1.914264   -0.209708   -0.000045
      9          1           0        2.900020   -0.673435    0.000036
     10         16           0        0.534379   -1.234389    0.000062
 ---------------------------------------------------------------------

 SCF Done:  E(UB3LYP) =  -661.642081519     A.U. after    2 cycles

 The electronic state is 1-A.
 Alpha  occ. eigenvalues --  -89.14399 -14.73059 -14.68745 -10.49598 -10.44207
 Alpha  occ. eigenvalues --  -10.43354 -10.40488  -8.20283  -6.16660  -6.16215
 Alpha  occ. eigenvalues --   -6.15886  -1.37896  -1.13440  -1.05122  -0.96853
 Alpha  occ. eigenvalues --   -0.88868  -0.79166  -0.74686  -0.73465  -0.71445
 Alpha  occ. eigenvalues --   -0.70042  -0.66252  -0.61791  -0.60037  -0.59604
 Alpha  occ. eigenvalues --   -0.57105  -0.47655  -0.46692
 Alpha virt. eigenvalues --   -0.30440  -0.29470  -0.20105  -0.19097  -0.15197
 Alpha virt. eigenvalues --   -0.14854  -0.11953  -0.11525  -0.11151  -0.10159
 Alpha virt. eigenvalues --   -0.09382  -0.08155  -0.06027  -0.05980  -0.05351

  Beta  occ. eigenvalues --  -89.14399 -14.73059 -14.68745 -10.49598 -10.44207
  Beta  occ. eigenvalues --  -10.43354 -10.40488  -8.20283  -6.16660  -6.16215
  Beta  occ. eigenvalues --   -6.15886  -1.37896  -1.13440  -1.05122  -0.96853
  Beta  occ. eigenvalues --   -0.88868  -0.79166  -0.74686  -0.73465  -0.71445
  Beta  occ. eigenvalues --   -0.70042  -0.66252  -0.61791  -0.60037  -0.59604
  Beta  occ. eigenvalues --   -0.57105  -0.47655  -0.46692
  Beta virt. eigenvalues --   -0.30440  -0.29470  -0.20105  -0.19097  -0.15197
  Beta virt. eigenvalues --   -0.14854  -0.11953  -0.11525  -0.11151  -0.10159
  Beta virt. eigenvalues --   -0.09382  -0.08155  -0.06027  -0.05980  -0.05351

 Mulliken atomic charges:
              1
     1  N    0.365186
     2  N   -0.505768
     3  C    0.468613
     4  C    0.847023
     5  H   -0.540759
     6  C    0.825989
     7  H   -0.469897
     8  C    0.103565
     9  H   -0.526671
    10  S    0.432719
 Sum of Mulliken atomic charges =   1.00000

 Dipole moment (field-independent basis, Debye):
    X=              0.4236    Y=              1.1929    Z=             -0.0001  Tot=              1.2659
 Quadrupole moment (field-independent basis, Debye-Ang):
   XX=            -25.2023   YY=            -34.1071   ZZ=            -45.8641
   XY=             -0.4988   XZ=              0.0012   YZ=              0.0004

  Exact polarizability: 117.197   2.285  74.259  -0.003   0.000  41.356
 Approx polarizability: 253.396   8.443 139.226  -0.017  -0.001  65.469

                     1                      2                      3
                     A                      A                      A
 Frequencies --   153.7989               172.5542               421.1809
 Red. masses --     6.3821                 9.2511                 5.5692
 Frc consts  --     0.0889                 0.1623                 0.5821
 IR Inten    --     0.4410                 0.4273                 0.6589

                     4                      5                      6
                     A                      A                      A
 Frequencies --   483.7441               508.6185               510.6418
 Red. masses --    12.4293                11.3912                10.5996
 Frc consts  --     1.7137                 1.7362                 1.6284
 IR Inten    --     1.6538                 1.4193                 3.4028

                     7                      8                      9
                     A                      A                      A
 Frequencies --   539.1961               695.3813               738.3369
 Red. masses --     2.8126                 8.1887                 7.1090
 Frc consts  --     0.4818                 2.3330                 2.2833
 IR Inten    --     4.1438                 4.0914                 5.4646

                    10                     11                     12
                     A                      A                      A
 Frequencies --   763.4069               863.9492               878.9395
 Red. masses --     1.1741                 4.4756                 1.3164
 Frc consts  --     0.4032                 1.9682                 0.5992
 IR Inten    --    71.2430                15.4099                 1.1217

                    13                     14                     15
                     A                      A                      A
 Frequencies --   948.2187              1075.8991              1100.8057
 Red. masses --     1.3888                 1.5619                 1.1988
 Frc consts  --     0.7357                 1.0652                 0.8559
 IR Inten    --     0.0473                27.0570                 5.2422

                    16                     17                     18
                     A                      A                      A
 Frequencies --  1195.8262              1261.3300              1359.3035
 Red. masses --     4.4475                 1.5405                 4.0753
 Frc consts  --     3.7472                 1.4440                 4.4365
 IR Inten    --    15.6226                27.4222               146.4771

                    19                     20                     21
                     A                      A                      A
 Frequencies --  1445.9194              1500.9716              2295.6397
 Red. masses --     3.7873                 4.3561                13.9682
 Frc consts  --     4.6651                 5.7822                43.3710
 IR Inten    --   113.8420                13.1939               359.1567

                    22                     23                     24
                     A                      A                      A
 Frequencies --  3227.5566              3235.1546              3245.3431
 Red. masses --     1.0904                 1.0960                 1.1041
 Frc consts  --     6.6925                 6.7588                 6.8514
 IR Inten    --     0.1664                38.5414                27.5503

 - Thermochemistry -
 -------------------
 Temperature   298.150 Kelvin.  Pressure   1.00000 Atm.
 Atom     1 has atomic number  7 and mass  14.00307

 Molecular mass:   111.00169 amu.
 Principal axes and moments of inertia in atomic units:
                           1         2         3
     Eigenvalues --   353.80647 963.122221316.92865
           X            0.99992   0.01299   0.00000
           Y           -0.01299   0.99992   0.00001
           Z            0.00000  -0.00001   1.00000
 This molecule is an asymmetric top.
 Rotational symmetry number  1.
 Rotational temperatures (Kelvin)      0.24481     0.08993     0.06577
 Rotational constants (GHZ):           5.10093     1.87384     1.37042
 Zero-point vibrational energy     171195.9 (Joules/Mol)
                                   40.91680 (Kcal/Mol)
 Warning -- explicit consideration of   7 degrees of freedom as
           vibrations may cause significant error
 Vibrational temperatures:    221.28   248.27   605.98   696.00   731.79
          (Kelvin)            734.70   775.78  1000.50  1062.30  1098.37
                             1243.03  1264.60  1364.27  1547.98  1583.81
                             1720.53  1814.77  1955.73  2080.35  2159.56
                             3302.91  4643.73  4654.66  4669.32

 Zero-point correction=                           0.065205 (Hartree/Particle)
 Thermal correction to Energy=                    0.071006
 Thermal correction to Enthalpy=                  0.071950
 Thermal correction to Gibbs Free Energy=         0.035090
 Sum of electronic and zero-point Energies=           -661.576876
 Sum of electronic and thermal Energies=              -661.571076
 Sum of electronic and thermal Enthalpies=            -661.570131
 Sum of electronic and thermal Free Energies=         -661.606992

                     E (Thermal)             CV                S
                      KCal/Mol        Cal/Mol-Kelvin    Cal/Mol-Kelvin
 Total                   44.557             21.141             77.579
 Electronic               0.000              0.000              0.000
 Translational            0.889              2.981             40.029
 Rotational               0.889              2.981             27.597
 Vibrational             42.779             15.179              9.952
 Vibration     1          0.619              1.898              2.625
 Vibration     2          0.626              1.876              2.407
 Vibration     3          0.784              1.424              0.888
 Vibration     4          0.840              1.286              0.700
 Vibration     5          0.864              1.231              0.637
 Vibration     6          0.866              1.226              0.632
 Vibration     7          0.894              1.163              0.567

 Optimization completed.
    -- Stationary point found.
 Normal termination of Gaussian 09 at Fri Mar  9 22:31:49 2018.
