 Gaussian 09, Revision B.01,
 Gaussian 09:  EM64L-G09RevB.01 12-Aug-2010

 -------------------------------------------------
 #p Temperature=298.15 opt freq UB3LYP/aug-cc-pVDZ
 -------------------------------------------------

 ---------------------------------------
 Thiophene-2+-UB3LYP-aug-cc-pVDZ-Triplet
 ---------------------------------------
 Symbolic Z-matrix:
 Charge =  1 Multiplicity = 3

 SCF Done:  E(UB3LYP) =  -551.806349502     A.U. after   23 cycles
 SCF Done:  E(UB3LYP) =  -551.930974407     A.U. after   16 cycles
 SCF Done:  E(UB3LYP) =  -552.013266802     A.U. after   17 cycles
 SCF Done:  E(UB3LYP) =  -552.024670212     A.U. after   15 cycles
 SCF Done:  E(UB3LYP) =  -552.027021069     A.U. after   19 cycles
 SCF Done:  E(UB3LYP) =  -552.027149747     A.U. after   13 cycles
 SCF Done:  E(UB3LYP) =  -552.027190770     A.U. after   18 cycles
 SCF Done:  E(UB3LYP) =  -552.027207781     A.U. after   13 cycles
 SCF Done:  E(UB3LYP) =  -552.027250437     A.U. after   14 cycles
 SCF Done:  E(UB3LYP) =  -552.027258988     A.U. after   14 cycles
 Optimization completed.
    -- Stationary point found.
 Normal termination of Gaussian 09 at Sun Jan 30 02:33:56 2005.

 ----------------------------------------------------------------------
 #P Geom=AllCheck Guess=TCheck SCRF=Check GenChk UB3LYP/Aug-CC-pVDZ Fre
 q
 ----------------------------------------------------------------------

 Thiophene-2+-UB3LYP-aug-cc-pVDZ-Triplet
 ---------------------------------------
 Redundant internal coordinates taken from checkpoint file:
 Thiophene-2+-UB3LYP-aug-cc-pVDZ-Triplet.chk
 Charge =  1 Multiplicity = 3

                         Standard orientation:
 ---------------------------------------------------------------------
 Center     Atomic      Atomic             Coordinates (Angstroms)
 Number     Number       Type             X           Y           Z
 ---------------------------------------------------------------------
      1          6           0       -0.055251   -1.230360   -0.000180
      2          6           0       -1.367020   -0.702700    0.000380
      3          1           0       -2.273008   -1.307381    0.000378
      4          6           0       -1.292744    0.681303   -0.000380
      5          1           0       -2.152047    1.352334   -0.000813
      6          6           0        0.053202    1.161300    0.000304
      7          1           0        0.371228    2.206133    0.000553
      8         16           0        1.251544   -0.106772   -0.000054
 ---------------------------------------------------------------------

 SCF Done:  E(UB3LYP) =  -552.027258988     A.U. after    1 cycles

 The electronic state is 3-A.
 Alpha  occ. eigenvalues --  -89.16942 -10.52227 -10.50158 -10.45476 -10.45420
 Alpha  occ. eigenvalues --   -8.22835  -6.19195  -6.18764  -6.18400  -1.14485
 Alpha  occ. eigenvalues --   -0.99928  -0.97359  -0.81156  -0.78828  -0.74234
 Alpha  occ. eigenvalues --   -0.65115  -0.64203  -0.63795  -0.60409  -0.53223
 Alpha  occ. eigenvalues --   -0.51046  -0.50232
 Alpha virt. eigenvalues --   -0.29101  -0.21445  -0.20063  -0.15163  -0.13834
 Alpha virt. eigenvalues --   -0.12067  -0.11888  -0.10445  -0.10120  -0.07942
 Alpha virt. eigenvalues --   -0.06148  -0.05889  -0.05833  -0.04072  -0.03662

  Beta  occ. eigenvalues --  -89.16981 -10.49862 -10.49296 -10.45330 -10.45269
  Beta  occ. eigenvalues --   -8.22867  -6.19199  -6.18809  -6.18545  -1.12443
  Beta  occ. eigenvalues --   -0.99389  -0.93857  -0.79678  -0.77282  -0.72051
  Beta  occ. eigenvalues --   -0.64388  -0.62757  -0.60618  -0.59967  -0.50146
  Beta virt. eigenvalues --   -0.39521  -0.35205  -0.24289  -0.20341  -0.17464
  Beta virt. eigenvalues --   -0.15011  -0.13112  -0.11802  -0.11485  -0.10066
  Beta virt. eigenvalues --   -0.09924  -0.07523  -0.05987  -0.05405  -0.04993

 Mulliken atomic charges:
              1
     1  C   -0.402443
     2  C    0.818669
     3  H   -0.352677
     4  C    1.072194
     5  H   -0.437045
     6  C    0.191550
     7  H   -0.475096
     8  S    0.584849
 Sum of Mulliken atomic charges =   1.00000

 Dipole moment (field-independent basis, Debye):
    X=             -1.5464    Y=              1.0750    Z=             -0.0001  Tot=              1.8834
 Quadrupole moment (field-independent basis, Debye-Ang):
   XX=            -22.3325   YY=            -23.4610   ZZ=            -34.8193
   XY=              0.9432   XZ=              0.0007   YZ=              0.0006

  Exact polarizability:  66.797   0.639  60.363  -0.002  -0.002  33.955
 Approx polarizability: 118.638   0.271 116.539  -0.002  -0.001  53.563

                     1                      2                      3
                     A                      A                      A
 Frequencies --   397.0304               504.1421               519.3172
 Red. masses --     3.4596                 3.2259                 9.0396
 Frc consts  --     0.3213                 0.4831                 1.4364
 IR Inten    --     0.0894                 3.9894                 1.6844

                     4                      5                      6
                     A                      A                      A
 Frequencies --   609.2356               738.4462               804.0819
 Red. masses --    11.2622                 1.2236                 6.4737
 Frc consts  --     2.4629                 0.3931                 2.4661
 IR Inten    --     0.0304                66.9839                 6.8565

                     7                      8                      9
                     A                      A                      A
 Frequencies --   839.6933               848.5702               950.7491
 Red. masses --     1.3687                 4.7868                 1.3900
 Frc consts  --     0.5686                 2.0308                 0.7403
 IR Inten    --     0.4053                27.2601                 0.0001

                    10                     11                     12
                     A                      A                      A
 Frequencies --  1027.1934              1110.7272              1153.2648
 Red. masses --     1.7701                 1.2160                 2.1264
 Frc consts  --     1.1004                 0.8839                 1.6663
 IR Inten    --     7.9942                 0.6253                 8.9210

                    13                     14                     15
                     A                      A                      A
 Frequencies --  1309.7986              1346.6940              1472.1128
 Red. masses --     2.5164                 1.8423                 4.6716
 Frc consts  --     2.5435                 1.9686                 5.9648
 IR Inten    --     8.4437                73.0529                38.0003

                    16                     17                     18
                     A                      A                      A
 Frequencies --  3211.3971              3222.5320              3236.5546
 Red. masses --     1.0910                 1.0947                 1.1024
 Frc consts  --     6.6291                 6.6977                 6.8036
 IR Inten    --    13.0041                39.1553                38.6897

 - Thermochemistry -
 -------------------
 Temperature   298.150 Kelvin.  Pressure   1.00000 Atm.
 Atom     1 has atomic number  6 and mass  12.00000

 Molecular mass:    82.99555 amu.
 Principal axes and moments of inertia in atomic units:
                           1         2         3
     Eigenvalues --   195.00732 365.90442 560.91170
           X            0.99987   0.01594   0.00001
           Y           -0.01594   0.99987  -0.00001
           Z           -0.00001   0.00001   1.00000
 This molecule is an asymmetric top.
 Rotational symmetry number  1.
 Rotational temperatures (Kelvin)      0.44416     0.23671     0.15442
 Rotational constants (GHZ):           9.25474     4.93227     3.21751
 Zero-point vibrational energy     139374.2 (Joules/Mol)
                                   33.31122 (Kcal/Mol)
 Warning -- explicit consideration of   4 degrees of freedom as
           vibrations may cause significant error
 Vibrational temperatures:    571.24   725.35   747.18   876.55  1062.46
          (Kelvin)           1156.89  1208.13  1220.90  1367.91  1477.90
                             1598.09  1659.29  1884.51  1937.59  2118.04
                             4620.48  4636.50  4656.67

 Zero-point correction=                           0.053085 (Hartree/Particle)
 Thermal correction to Energy=                    0.057272
 Thermal correction to Enthalpy=                  0.058216
 Thermal correction to Gibbs Free Energy=         0.024769
 Sum of electronic and zero-point Energies=           -551.974174
 Sum of electronic and thermal Energies=              -551.969987
 Sum of electronic and thermal Enthalpies=            -551.969043
 Sum of electronic and thermal Free Energies=         -552.002490

                     E (Thermal)             CV                S
                      KCal/Mol        Cal/Mol-Kelvin    Cal/Mol-Kelvin
 Total                   35.939             15.105             70.394
 Electronic               0.000              0.000              2.183
 Translational            0.889              2.981             39.162
 Rotational               0.889              2.981             25.196
 Vibrational             34.161              9.144              3.853
 Vibration     1          0.764              1.477              0.974
 Vibration     2          0.859              1.241              0.648
 Vibration     3          0.874              1.207              0.612
 Vibration     4          0.968              1.012              0.434

 Optimization completed.
    -- Stationary point found.
 Normal termination of Gaussian 09 at Sun Jan 30 02:35:14 2005.
