 Gaussian 09, Revision B.01,
 Gaussian 09:  EM64L-G09RevB.01 12-Aug-2010

 -------------------------------------------------
 #p Temperature=298.15 opt freq UB3LYP/aug-cc-pVDZ
 -------------------------------------------------

 ---------------------------------------
 Thiophene-2+-UB3LYP-aug-cc-pVDZ-Singlet
 ---------------------------------------
 Symbolic Z-matrix:
 Charge =  1 Multiplicity = 1

 SCF Done:  E(UB3LYP) =  -551.764726204     A.U. after   24 cycles
 SCF Done:  E(UB3LYP) =  -551.882239209     A.U. after   24 cycles
 SCF Done:  E(UB3LYP) =  -551.979363920     A.U. after   19 cycles
 SCF Done:  E(UB3LYP) =  -552.005918637     A.U. after   15 cycles
 SCF Done:  E(UB3LYP) =  -552.011682072     A.U. after   14 cycles
 SCF Done:  E(UB3LYP) =  -552.012666554     A.U. after   13 cycles
 SCF Done:  E(UB3LYP) =  -552.012867385     A.U. after   12 cycles
 SCF Done:  E(UB3LYP) =  -552.012954350     A.U. after   12 cycles
 SCF Done:  E(UB3LYP) =  -552.013005811     A.U. after   12 cycles
 SCF Done:  E(UB3LYP) =  -552.013034351     A.U. after   11 cycles
 SCF Done:  E(UB3LYP) =  -552.013049304     A.U. after   10 cycles
 SCF Done:  E(UB3LYP) =  -552.013059210     A.U. after   11 cycles
 SCF Done:  E(UB3LYP) =  -552.013066597     A.U. after   11 cycles
 SCF Done:  E(UB3LYP) =  -552.013068389     A.U. after   11 cycles
 Optimization completed.
    -- Stationary point found.
 Normal termination of Gaussian 09 at Fri Mar  9 22:35:49 2018.

 ----------------------------------------------------------------------
 #P Geom=AllCheck Guess=TCheck SCRF=Check GenChk UB3LYP/Aug-CC-pVDZ Fre
 q
 ----------------------------------------------------------------------

 Thiophene-2+-UB3LYP-aug-cc-pVDZ-Singlet
 ---------------------------------------
 Redundant internal coordinates taken from checkpoint file:
 Thiophene-2+-UB3LYP-aug-cc-pVDZ-Singlet.chk
 Charge =  1 Multiplicity = 1

                         Standard orientation:
 ---------------------------------------------------------------------
 Center     Atomic      Atomic             Coordinates (Angstroms)
 Number     Number       Type             X           Y           Z
 ---------------------------------------------------------------------
      1          6           0       -0.194868   -1.056283    0.298463
      2          6           0       -1.421628   -0.686129   -0.139243
      3          1           0       -2.347585   -1.247726   -0.241466
      4          6           0       -1.227588    0.723484   -0.029994
      5          1           0       -2.038934    1.409296    0.224316
      6          6           0        0.128084    1.127685   -0.006209
      7          1           0        0.478352    2.107303    0.323816
      8         16           0        1.262760   -0.182588   -0.065298
 ---------------------------------------------------------------------

 SCF Done:  E(UB3LYP) =  -552.013068389     A.U. after    1 cycles

 The electronic state is 1-A.
 Alpha  occ. eigenvalues --  -89.17783 -10.53164 -10.48778 -10.46720 -10.46148
 Alpha  occ. eigenvalues --   -8.23558  -6.19982  -6.19566  -6.19042  -1.15553
 Alpha  occ. eigenvalues --   -1.01165  -0.95471  -0.80063  -0.78766  -0.72863
 Alpha  occ. eigenvalues --   -0.67032  -0.64471  -0.62420  -0.60651  -0.49899
 Alpha  occ. eigenvalues --   -0.49703
 Alpha virt. eigenvalues --   -0.37102  -0.28184  -0.23481  -0.19979  -0.14962
 Alpha virt. eigenvalues --   -0.13599  -0.11757  -0.11555  -0.10144  -0.09830
 Alpha virt. eigenvalues --   -0.07785  -0.06381  -0.05965  -0.04103  -0.04021

  Beta  occ. eigenvalues --  -89.17783 -10.53164 -10.48778 -10.46720 -10.46148
  Beta  occ. eigenvalues --   -8.23558  -6.19982  -6.19566  -6.19042  -1.15553
  Beta  occ. eigenvalues --   -1.01165  -0.95471  -0.80063  -0.78766  -0.72863
  Beta  occ. eigenvalues --   -0.67032  -0.64471  -0.62420  -0.60651  -0.49899
  Beta  occ. eigenvalues --   -0.49703
  Beta virt. eigenvalues --   -0.37102  -0.28184  -0.23481  -0.19979  -0.14962
  Beta virt. eigenvalues --   -0.13599  -0.11757  -0.11555  -0.10144  -0.09830
  Beta virt. eigenvalues --   -0.07785  -0.06381  -0.05965  -0.04103  -0.04021

 Mulliken atomic charges:
              1
     1  C   -0.474615
     2  C    0.827306
     3  H   -0.357176
     4  C    0.976271
     5  H   -0.443214
     6  C    0.366725
     7  H   -0.469605
     8  S    0.574308
 Sum of Mulliken atomic charges =   1.00000

 Dipole moment (field-independent basis, Debye):
    X=             -1.6445    Y=              0.7153    Z=             -0.1623  Tot=              1.8007
 Quadrupole moment (field-independent basis, Debye-Ang):
   XX=            -20.9900   YY=            -23.9614   ZZ=            -35.3820
   XY=              1.0387   XZ=             -0.0906   YZ=              1.6977

  Exact polarizability:  68.521  -0.022  62.225   0.797  -2.233  35.721
 Approx polarizability: 131.653  -6.823 148.026   3.553 -12.774  59.329

                     1                      2                      3
                     A                      A                      A
 Frequencies --   362.0368               410.1893               490.0450
 Red. masses --     2.6151                 8.2298                 4.9795
 Frc consts  --     0.2019                 0.8158                 0.7045
 IR Inten    --     7.3044                28.4582                 8.0750

                     4                      5                      6
                     A                      A                      A
 Frequencies --   552.0050               667.3067               769.5167
 Red. masses --     3.0260                 8.6371                 1.6274
 Frc consts  --     0.5433                 2.2661                 0.5678
 IR Inten    --    15.4031                 9.5397                53.1217

                     7                      8                      9
                     A                      A                      A
 Frequencies --   809.1144               859.4870               898.8212
 Red. masses --     1.5792                 2.8251                 1.5881
 Frc consts  --     0.6091                 1.2296                 0.7559
 IR Inten    --    11.7907                32.3515                 8.2557

                    10                     11                     12
                     A                      A                      A
 Frequencies --  1045.9346              1107.2872              1196.3640
 Red. masses --     1.4949                 1.1396                 1.8430
 Frc consts  --     0.9636                 0.8232                 1.5541
 IR Inten    --     1.7075                 0.5349                 9.6440

                    13                     14                     15
                     A                      A                      A
 Frequencies --  1280.6636              1337.3416              1517.6442
 Red. masses --     3.0083                 2.3009                 4.9858
 Frc consts  --     2.9070                 2.4246                 6.7659
 IR Inten    --    92.7703                12.6376                 9.0014

                    16                     17                     18
                     A                      A                      A
 Frequencies --  3190.8268              3212.5622              3249.5029
 Red. masses --     1.0906                 1.0963                 1.1022
 Frc consts  --     6.5424                 6.6662                 6.8572
 IR Inten    --    19.5301                41.6415                75.9477

 - Thermochemistry -
 -------------------
 Temperature   298.150 Kelvin.  Pressure   1.00000 Atm.
 Atom     1 has atomic number  6 and mass  12.00000

 Molecular mass:    82.99555 amu.
 Principal axes and moments of inertia in atomic units:
                           1         2         3
     Eigenvalues --   183.11283 376.43021 547.91977
           X            0.99985   0.01733   0.00266
           Y           -0.01739   0.99948   0.02709
           Z           -0.00219  -0.02713   0.99963
 This molecule is an asymmetric top.
 Rotational symmetry number  1.
 Rotational temperatures (Kelvin)      0.47301     0.23009     0.15808
 Rotational constants (GHZ):           9.85590     4.79436     3.29381
 Zero-point vibrational energy     137311.3 (Joules/Mol)
                                   32.81818 (Kcal/Mol)
 Warning -- explicit consideration of   4 degrees of freedom as
           vibrations may cause significant error
 Vibrational temperatures:    520.89   590.17   705.06   794.21   960.10
          (Kelvin)           1107.16  1164.13  1236.61  1293.20  1504.86
                             1593.14  1721.30  1842.59  1924.13  2183.55
                             4590.88  4622.15  4675.30

 Zero-point correction=                           0.052299 (Hartree/Particle)
 Thermal correction to Energy=                    0.056705
 Thermal correction to Enthalpy=                  0.057649
 Thermal correction to Gibbs Free Energy=         0.024916
 Sum of electronic and zero-point Energies=           -551.960769
 Sum of electronic and thermal Energies=              -551.956364
 Sum of electronic and thermal Enthalpies=            -551.955419
 Sum of electronic and thermal Free Energies=         -551.988153

                     E (Thermal)             CV                S
                      KCal/Mol        Cal/Mol-Kelvin    Cal/Mol-Kelvin
 Total                   35.583             15.828             68.893
 Electronic               0.000              0.000              0.000
 Translational            0.889              2.981             39.162
 Rotational               0.889              2.981             25.138
 Vibrational             33.805              9.866              4.592
 Vibration     1          0.736              1.550              1.113
 Vibration     2          0.774              1.448              0.926
 Vibration     3          0.846              1.272              0.683
 Vibration     4          0.907              1.135              0.540

 Optimization completed.
    -- Stationary point found.
 Normal termination of Gaussian 09 at Fri Mar  9 22:37:06 2018.
