 Gaussian 09, Revision B.01,
 Gaussian 09:  EM64L-G09RevB.01 12-Aug-2010

 -------------------------------------------------
 #p Temperature=298.15 opt freq UB3LYP/aug-cc-pVDZ
 -------------------------------------------------

 ------------------------------------------
 Thiophene-2-N2+-UB3LYP-aug-cc-pVDZ-Triplet
 ------------------------------------------
 Symbolic Z-matrix:
 Charge =  1 Multiplicity = 3

 SCF Done:  E(UB3LYP) =  -661.301713990     A.U. after   24 cycles
 SCF Done:  E(UB3LYP) =  -661.432059257     A.U. after   23 cycles
 SCF Done:  E(UB3LYP) =  -661.527532382     A.U. after   69 cycles
 SCF Done:  E(UB3LYP) =  -661.546600054     A.U. after   18 cycles
 SCF Done:  E(UB3LYP) =  -661.551241564     A.U. after   18 cycles
 SCF Done:  E(UB3LYP) =  -661.551250067     A.U. after   21 cycles
 SCF Done:  E(UB3LYP) =  -661.551930426     A.U. after   21 cycles
 SCF Done:  E(UB3LYP) =  -661.552371238     A.U. after   22 cycles
 SCF Done:  E(UB3LYP) =  -661.552463460     A.U. after   15 cycles
 SCF Done:  E(UB3LYP) =  -661.552599458     A.U. after   16 cycles
 SCF Done:  E(UB3LYP) =  -661.564569194     A.U. after   17 cycles
 SCF Done:  E(UB3LYP) =  -661.564732367     A.U. after   20 cycles
 SCF Done:  E(UB3LYP) =  -661.564892371     A.U. after   22 cycles
 SCF Done:  E(UB3LYP) =  -661.565871889     A.U. after   21 cycles
 SCF Done:  E(UB3LYP) =  -661.566153873     A.U. after   21 cycles
 SCF Done:  E(UB3LYP) =  -661.566217107     A.U. after   21 cycles
 SCF Done:  E(UB3LYP) =  -661.566236747     A.U. after   21 cycles
 SCF Done:  E(UB3LYP) =  -661.566244603     A.U. after   15 cycles
 SCF Done:  E(UB3LYP) =  -661.566246139     A.U. after   13 cycles
 Optimization completed.
    -- Stationary point found.
 Normal termination of Gaussian 09 at Sun Jan 30 02:23:40 2005.

 ----------------------------------------------------------------------
 #P Geom=AllCheck Guess=TCheck SCRF=Check GenChk UB3LYP/Aug-CC-pVDZ Fre
 q
 ----------------------------------------------------------------------

 Thiophene-2-N2+-UB3LYP-aug-cc-pVDZ-Triplet
 ------------------------------------------
 Redundant internal coordinates taken from checkpoint file:
 Thiophene-2-N2+-UB3LYP-aug-cc-pVDZ-Triplet.chk
 Charge =  1 Multiplicity = 3

                         Standard orientation:
 ---------------------------------------------------------------------
 Center     Atomic      Atomic             Coordinates (Angstroms)
 Number     Number       Type             X           Y           Z
 ---------------------------------------------------------------------
      1          7           0       -1.842206    0.653959   -0.000841
      2          7           0       -2.661334   -0.223672    0.000760
      3          6           0       -0.470063    0.421700   -0.000169
      4          6           0        0.504664    1.446843    0.000130
      5          1           0        0.235874    2.502212    0.000253
      6          6           0        1.786371    0.930339    0.000250
      7          1           0        2.702065    1.520295    0.000488
      8          6           0        1.798827   -0.502247   -0.000038
      9          1           0        2.693531   -1.127924   -0.000364
     10         16           0        0.260907   -1.230400   -0.000053
 ---------------------------------------------------------------------

 SCF Done:  E(UB3LYP) =  -661.566246139     A.U. after    1 cycles

 The electronic state is 3-A.
 Alpha  occ. eigenvalues --  -89.16337 -14.62914 -14.61955 -10.52557 -10.49672
 Alpha  occ. eigenvalues --  -10.45264 -10.44507  -8.22237  -6.18546  -6.18174
 Alpha  occ. eigenvalues --   -6.17884  -1.28885  -1.13561  -1.01810  -0.99229
 Alpha  occ. eigenvalues --   -0.89638  -0.80610  -0.77086  -0.71872  -0.67557
 Alpha  occ. eigenvalues --   -0.67417  -0.64992  -0.63852  -0.61242  -0.60640
 Alpha  occ. eigenvalues --   -0.58780  -0.50534  -0.49393  -0.42357
 Alpha virt. eigenvalues --   -0.31421  -0.22667  -0.21144  -0.18417  -0.14952
 Alpha virt. eigenvalues --   -0.14557  -0.12980  -0.11598  -0.10055  -0.09717
 Alpha virt. eigenvalues --   -0.08149  -0.07124  -0.06381  -0.05919  -0.04316

  Beta  occ. eigenvalues --  -89.16347 -14.62775 -14.59859 -10.51477 -10.49129
  Beta  occ. eigenvalues --  -10.45022 -10.44608  -8.22247  -6.18539  -6.18183
  Beta  occ. eigenvalues --   -6.17926  -1.26611  -1.12375  -0.99846  -0.98174
  Beta  occ. eigenvalues --   -0.87939  -0.79699  -0.76544  -0.70164  -0.65463
  Beta  occ. eigenvalues --   -0.64881  -0.63834  -0.61899  -0.59863  -0.58645
  Beta  occ. eigenvalues --   -0.55746  -0.49987
  Beta virt. eigenvalues --   -0.40014  -0.27907  -0.27595  -0.19923  -0.19606
  Beta virt. eigenvalues --   -0.16296  -0.14739  -0.14050  -0.12812  -0.11514
  Beta virt. eigenvalues --   -0.09941  -0.09464  -0.08001  -0.06838  -0.06178

 Mulliken atomic charges:
              1
     1  N    0.069384
     2  N   -0.395751
     3  C    0.128601
     4  C    0.963211
     5  H   -0.485539
     6  C    0.882578
     7  H   -0.450548
     8  C    0.230272
     9  H   -0.492119
    10  S    0.549911
 Sum of Mulliken atomic charges =   1.00000

 Dipole moment (field-independent basis, Debye):
    X=              4.8219    Y=              0.9344    Z=              0.0001  Tot=              4.9116
 Quadrupole moment (field-independent basis, Debye-Ang):
   XX=            -30.1385   YY=            -34.1313   ZZ=            -44.6697
   XY=             -0.2239   XZ=              0.0013   YZ=              0.0040

  Exact polarizability: 106.147   2.058  76.221  -0.002  -0.002  40.974
 Approx polarizability: 194.458   9.657 142.391  -0.004  -0.012  66.145

                     1                      2                      3
                     A                      A                      A
 Frequencies --    96.4339               190.4519               218.1264
 Red. masses --     9.3502                11.2855                 5.4174
 Frc consts  --     0.0512                 0.2412                 0.1519
 IR Inten    --     0.0241                 0.6853                 0.0108

                     4                      5                      6
                     A                      A                      A
 Frequencies --   432.0770               453.6329               497.0756
 Red. masses --     3.0391                 9.1222                11.4169
 Frc consts  --     0.3343                 1.1060                 1.6620
 IR Inten    --     0.0262                 3.6884                 0.0622

                     7                      8                      9
                     A                      A                      A
 Frequencies --   534.9087               612.0119               672.8730
 Red. masses --     3.6809                 8.3590                 9.8259
 Frc consts  --     0.6205                 1.8447                 2.6211
 IR Inten    --     2.5422                 4.4533                 5.1389

                    10                     11                     12
                     A                      A                      A
 Frequencies --   781.4767               871.6416               875.0748
 Red. masses --     1.2469                 4.4633                 1.3884
 Frc consts  --     0.4487                 1.9979                 0.6264
 IR Inten    --    60.6481                19.8232                 1.4560

                    13                     14                     15
                     A                      A                      A
 Frequencies --   961.9803              1022.1195              1038.1740
 Red. masses --     1.4277                 3.8101                 1.7069
 Frc consts  --     0.7784                 2.3453                 1.0839
 IR Inten    --     0.9708                21.1712                17.9250

                    16                     17                     18
                     A                      A                      A
 Frequencies --  1131.0470              1218.0658              1344.3504
 Red. masses --     1.2810                 2.3377                 2.8902
 Frc consts  --     0.9655                 2.0435                 3.0776
 IR Inten    --     5.7567                15.1057                10.1338

                    19                     20                     21
                     A                      A                      A
 Frequencies --  1374.4710              1496.5094              1671.0097
 Red. masses --     2.0844                 4.4007                13.3392
 Frc consts  --     2.3201                 5.8067                21.9451
 IR Inten    --   128.3726                33.3628                27.2692

                    22                     23                     24
                     A                      A                      A
 Frequencies --  3215.2097              3227.5856              3239.1922
 Red. masses --     1.0927                 1.0934                 1.1039
 Frc consts  --     6.6552                 6.7109                 6.8245
 IR Inten    --    19.2631                27.2967                33.6269

 - Thermochemistry -
 -------------------
 Temperature   298.150 Kelvin.  Pressure   1.00000 Atm.
 Atom     1 has atomic number  7 and mass  14.00307

 Molecular mass:   111.00169 amu.
 Principal axes and moments of inertia in atomic units:
                           1         2         3
     Eigenvalues --   377.05209 879.105281256.15724
           X            0.99992   0.01269   0.00000
           Y           -0.01269   0.99992   0.00002
           Z            0.00000  -0.00002   1.00000
 This molecule is an asymmetric top.
 Rotational symmetry number  1.
 Rotational temperatures (Kelvin)      0.22971     0.09852     0.06895
 Rotational constants (GHZ):           4.78645     2.05293     1.43672
 Zero-point vibrational energy     162545.6 (Joules/Mol)
                                   38.84933 (Kcal/Mol)
 Warning -- explicit consideration of   8 degrees of freedom as
           vibrations may cause significant error
 Vibrational temperatures:    138.75   274.02   313.83   621.66   652.68
          (Kelvin)            715.18   769.61   880.55   968.11  1124.37
                             1254.10  1259.04  1384.07  1470.60  1493.70
                             1627.32  1752.52  1934.22  1977.55  2153.14
                             2404.21  4625.96  4643.77  4660.47

 Zero-point correction=                           0.061910 (Hartree/Particle)
 Thermal correction to Energy=                    0.068211
 Thermal correction to Enthalpy=                  0.069155
 Thermal correction to Gibbs Free Energy=         0.030162
 Sum of electronic and zero-point Energies=           -661.504336
 Sum of electronic and thermal Energies=              -661.498035
 Sum of electronic and thermal Enthalpies=            -661.497091
 Sum of electronic and thermal Free Energies=         -661.536084

                     E (Thermal)             CV                S
                      KCal/Mol        Cal/Mol-Kelvin    Cal/Mol-Kelvin
 Total                   42.803             22.327             82.068
 Electronic               0.000              0.000              2.183
 Translational            0.889              2.981             40.029
 Rotational               0.889              2.981             27.523
 Vibrational             41.025             16.365             12.333
 Vibration     1          0.603              1.952              3.525
 Vibration     2          0.634              1.853              2.223
 Vibration     3          0.646              1.813              1.975
 Vibration     4          0.793              1.400              0.852
 Vibration     5          0.812              1.353              0.785
 Vibration     6          0.853              1.257              0.665
 Vibration     7          0.890              1.173              0.576
 Vibration     8          0.971              1.006              0.429

 Optimization completed.
    -- Stationary point found.
 Normal termination of Gaussian 09 at Sun Jan 30 02:27:32 2005.
