 Gaussian 09, Revision B.01,
 Gaussian 09:  EM64L-G09RevB.01 12-Aug-2010

 -------------------------------------------------
 #p Temperature=298.15 opt freq UB3LYP/aug-cc-pVDZ
 -------------------------------------------------

 ------------------------------------------
 Thiophene-3-N2+-UB3LYP-aug-cc-pVDZ-Singlet
 ------------------------------------------
 Symbolic Z-matrix:
 Charge =  1 Multiplicity = 1

 SCF Done:  E(UB3LYP) =  -661.477842935     A.U. after   15 cycles
 SCF Done:  E(UB3LYP) =  -661.582838789     A.U. after   13 cycles
 SCF Done:  E(UB3LYP) =  -661.635700136     A.U. after   15 cycles
 SCF Done:  E(UB3LYP) =  -661.643961421     A.U. after   13 cycles
 SCF Done:  E(UB3LYP) =  -661.642567203     A.U. after   15 cycles
 SCF Done:  E(UB3LYP) =  -661.644683615     A.U. after   15 cycles
 SCF Done:  E(UB3LYP) =  -661.645141938     A.U. after   12 cycles
 SCF Done:  E(UB3LYP) =  -661.645238137     A.U. after   11 cycles
 SCF Done:  E(UB3LYP) =  -661.645251108     A.U. after   17 cycles
 SCF Done:  E(UB3LYP) =  -661.645254721     A.U. after    9 cycles
 SCF Done:  E(UB3LYP) =  -661.645257281     A.U. after    9 cycles
 Optimization completed.
    -- Stationary point found.
 Normal termination of Gaussian 09 at Fri Mar  9 22:46:47 2018.

 ----------------------------------------------------------------------
 #P Geom=AllCheck Guess=TCheck SCRF=Check GenChk UB3LYP/Aug-CC-pVDZ Fre
 q
 ----------------------------------------------------------------------

 Thiophene-3-N2+-UB3LYP-aug-cc-pVDZ-Singlet
 ------------------------------------------
 Redundant internal coordinates taken from checkpoint file:
 Thiophene-3-N2+-UB3LYP-aug-cc-pVDZ-Singlet.chk
 Charge =  1 Multiplicity = 1

                         Standard orientation:
 ---------------------------------------------------------------------
 Center     Atomic      Atomic             Coordinates (Angstroms)
 Number     Number       Type             X           Y           Z
 ---------------------------------------------------------------------
      1          7           0        2.010471   -0.082018   -0.000178
      2          7           0        3.122881   -0.173397   -0.000067
      3          6           0        0.651132    0.046730    0.000049
      4          6           0       -0.012159    1.323037    0.000267
      5          1           0        0.493722    2.285567    0.000358
      6          6           0       -1.361895    1.136367   -0.000094
      7          1           0       -2.140461    1.895425   -0.000443
      8          6           0       -0.185954   -1.069549    0.000179
      9          1           0        0.092413   -2.120546    0.000537
     10         16           0       -1.807868   -0.555754   -0.000071
 ---------------------------------------------------------------------

 SCF Done:  E(UB3LYP) =  -661.645257281     A.U. after    1 cycles

 The electronic state is 1-A.
 Alpha  occ. eigenvalues --  -89.13440 -14.73371 -14.69484 -10.48535 -10.45287
 Alpha  occ. eigenvalues --  -10.42085 -10.41409  -8.19341  -6.15638  -6.15226
 Alpha  occ. eigenvalues --   -6.15076  -1.38529  -1.13167  -1.05223  -0.95617
 Alpha  occ. eigenvalues --   -0.88740  -0.79902  -0.75424  -0.73753  -0.71537
 Alpha  occ. eigenvalues --   -0.70465  -0.65422  -0.63152  -0.60345  -0.59645
 Alpha  occ. eigenvalues --   -0.55714  -0.47939  -0.45857
 Alpha virt. eigenvalues --   -0.30042  -0.28973  -0.21566  -0.16598  -0.15206
 Alpha virt. eigenvalues --   -0.14141  -0.12499  -0.11578  -0.11379  -0.10915
 Alpha virt. eigenvalues --   -0.09436  -0.08276  -0.05756  -0.05472  -0.05259

  Beta  occ. eigenvalues --  -89.13440 -14.73371 -14.69484 -10.48535 -10.45287
  Beta  occ. eigenvalues --  -10.42085 -10.41409  -8.19341  -6.15638  -6.15226
  Beta  occ. eigenvalues --   -6.15076  -1.38529  -1.13167  -1.05223  -0.95617
  Beta  occ. eigenvalues --   -0.88740  -0.79902  -0.75424  -0.73753  -0.71537
  Beta  occ. eigenvalues --   -0.70465  -0.65422  -0.63152  -0.60345  -0.59645
  Beta  occ. eigenvalues --   -0.55714  -0.47939  -0.45857
  Beta virt. eigenvalues --   -0.30042  -0.28973  -0.21566  -0.16598  -0.15206
  Beta virt. eigenvalues --   -0.14141  -0.12499  -0.11578  -0.11379  -0.10915
  Beta virt. eigenvalues --   -0.09436  -0.08276  -0.05756  -0.05472  -0.05259

 Mulliken atomic charges:
              1
     1  N    0.380335
     2  N   -0.555123
     3  C    1.004019
     4  C    0.989079
     5  H   -0.542597
     6  C   -0.063579
     7  H   -0.494006
     8  C    0.279487
     9  H   -0.566196
    10  S    0.568582
 Sum of Mulliken atomic charges =   1.00000

 Dipole moment (field-independent basis, Debye):
    X=              1.3084    Y=              0.1711    Z=              0.0000  Tot=              1.3196
 Quadrupole moment (field-independent basis, Debye-Ang):
   XX=            -26.6193   YY=            -32.8690   ZZ=            -45.8625
   XY=             -1.6940   XZ=              0.0012   YZ=             -0.0014

  Exact polarizability: 117.889  -0.220  69.359   0.001   0.000  41.636
 Approx polarizability: 244.857   2.930 122.225   0.008  -0.001  65.995

                     1                      2                      3
                     A                      A                      A
 Frequencies --   154.8636               177.7487               443.3979
 Red. masses --     8.5104                 7.9977                 5.0322
 Frc consts  --     0.1203                 0.1489                 0.5829
 IR Inten    --     0.0161                 1.0480                 0.0052

                     4                      5                      6
                     A                      A                      A
 Frequencies --   489.0906               495.8767               540.6547
 Red. masses --    13.9696                 7.3804                 9.0814
 Frc consts  --     1.9689                 1.0692                 1.5640
 IR Inten    --     5.1314                 0.5849                 0.1556

                     7                      8                      9
                     A                      A                      A
 Frequencies --   590.8105               638.6580               713.7634
 Red. masses --     3.8152                 7.8547                 1.2345
 Frc consts  --     0.7846                 1.8876                 0.3706
 IR Inten    --    11.7752                 1.9971                18.2851

                    10                     11                     12
                     A                      A                      A
 Frequencies --   801.9480               806.4867               897.9310
 Red. masses --     5.7749                 1.2815                 1.2937
 Frc consts  --     2.1882                 0.4911                 0.6146
 IR Inten    --     0.2297                65.2393                 0.0554

                    13                     14                     15
                     A                      A                      A
 Frequencies --   902.1549               938.1270              1099.4178
 Red. masses --     3.7259                 3.5154                 1.1255
 Frc consts  --     1.7867                 1.8228                 0.8015
 IR Inten    --    26.4934                 5.3050                11.8816

                    16                     17                     18
                     A                      A                      A
 Frequencies --  1170.7949              1235.0629              1383.8169
 Red. masses --     2.0880                 1.4411                 2.7671
 Frc consts  --     1.6863                 1.2951                 3.1219
 IR Inten    --    55.1901                28.0206                19.7486

                    19                     20                     21
                     A                      A                      A
 Frequencies --  1432.8379              1522.3603              2325.7485
 Red. masses --     8.5035                 5.6059                13.9593
 Frc consts  --    10.2859                 7.6547                44.4877
 IR Inten    --    69.9421                28.0517               288.1426

                    22                     23                     24
                     A                      A                      A
 Frequencies --  3238.6646              3253.8646              3258.0913
 Red. masses --     1.0918                 1.0967                 1.1041
 Frc consts  --     6.7474                 6.8410                 6.9054
 IR Inten    --    17.0247                54.5092                16.1755

 - Thermochemistry -
 -------------------
 Temperature   298.150 Kelvin.  Pressure   1.00000 Atm.
 Atom     1 has atomic number  7 and mass  14.00307

 Molecular mass:   111.00169 amu.
 Principal axes and moments of inertia in atomic units:
                           1         2         3
     Eigenvalues --   264.214011179.551881443.76587
           X            0.99993  -0.01209   0.00000
           Y            0.01209   0.99993  -0.00002
           Z            0.00000   0.00002   1.00000
 This molecule is an asymmetric top.
 Rotational symmetry number  1.
 Rotational temperatures (Kelvin)      0.32782     0.07343     0.05999
 Rotational constants (GHZ):           6.83060     1.53002     1.25002
 Zero-point vibrational energy     170540.7 (Joules/Mol)
                                   40.76019 (Kcal/Mol)
 Warning -- explicit consideration of   7 degrees of freedom as
           vibrations may cause significant error
 Vibrational temperatures:    222.81   255.74   637.95   703.69   713.46
          (Kelvin)            777.88   850.04   918.89  1026.95  1153.82
                             1160.35  1291.92  1298.00  1349.75  1581.82
                             1684.51  1776.98  1991.00  2061.53  2190.33
                             3346.23  4659.71  4681.58  4687.66

 Zero-point correction=                           0.064956 (Hartree/Particle)
 Thermal correction to Energy=                    0.070743
 Thermal correction to Enthalpy=                  0.071687
 Thermal correction to Gibbs Free Energy=         0.034879
 Sum of electronic and zero-point Energies=           -661.580302
 Sum of electronic and thermal Energies=              -661.574514
 Sum of electronic and thermal Enthalpies=            -661.573570
 Sum of electronic and thermal Free Energies=         -661.610378

                     E (Thermal)             CV                S
                      KCal/Mol        Cal/Mol-Kelvin    Cal/Mol-Kelvin
 Total                   44.392             21.308             77.469
 Electronic               0.000              0.000              0.000
 Translational            0.889              2.981             40.029
 Rotational               0.889              2.981             27.600
 Vibrational             42.614             15.347              9.839
 Vibration     1          0.620              1.897              2.612
 Vibration     2          0.628              1.870              2.352
 Vibration     3          0.803              1.375              0.816
 Vibration     4          0.845              1.274              0.686
 Vibration     5          0.851              1.259              0.669
 Vibration     6          0.896              1.160              0.564
 Vibration     7          0.948              1.051              0.466

 Normal termination of Gaussian 09 at Fri Mar  9 22:50:36 2018.
