 Gaussian 09, Revision B.01,
 Gaussian 09:  EM64L-G09RevB.01 12-Aug-2010

 -------------------------------------------------
 #p Temperature=298.15 opt freq UB3LYP/aug-cc-pVDZ
 -------------------------------------------------

 ----------------------------------------
 Thiophene-3-N2-UB3LYP-aug-cc-pVDZ-Duplet
 ----------------------------------------
 Symbolic Z-matrix:
 Charge =  0 Multiplicity = 2

 SCF Done:  E(UB3LYP) =  -661.697795988     A.U. after   21 cycles
 SCF Done:  E(UB3LYP) =  -661.804426950     A.U. after   20 cycles
 SCF Done:  E(UB3LYP) =  -661.862739852     A.U. after   22 cycles
 SCF Done:  E(UB3LYP) =  -661.872130305     A.U. after   20 cycles
 SCF Done:  E(UB3LYP) =  -661.873623323     A.U. after   19 cycles
 SCF Done:  E(UB3LYP) =  -661.873817558     A.U. after   18 cycles
 SCF Done:  E(UB3LYP) =  -661.873802249     A.U. after   17 cycles
 SCF Done:  E(UB3LYP) =  -661.873835443     A.U. after   18 cycles
 SCF Done:  E(UB3LYP) =  -661.873859546     A.U. after   22 cycles
 SCF Done:  E(UB3LYP) =  -661.873873739     A.U. after   15 cycles
 SCF Done:  E(UB3LYP) =  -661.893719852     A.U. after   19 cycles
 SCF Done:  E(UB3LYP) =  -661.894778850     A.U. after   19 cycles
 SCF Done:  E(UB3LYP) =  -661.894170358     A.U. after   19 cycles
 SCF Done:  E(UB3LYP) =  -661.895473186     A.U. after   19 cycles
 SCF Done:  E(UB3LYP) =  -661.896062721     A.U. after   19 cycles
 SCF Done:  E(UB3LYP) =  -661.896224340     A.U. after   15 cycles
 SCF Done:  E(UB3LYP) =  -661.896253248     A.U. after   14 cycles
 SCF Done:  E(UB3LYP) =  -661.896258462     A.U. after   21 cycles
 SCF Done:  E(UB3LYP) =  -661.896259383     A.U. after   21 cycles
 Optimization completed.
    -- Stationary point found.
 Normal termination of Gaussian 09 at Wed Mar  7 17:15:52 2018.

 ----------------------------------------------------------------------
 #P Geom=AllCheck Guess=TCheck SCRF=Check GenChk UB3LYP/Aug-CC-pVDZ Fre
 q
 ----------------------------------------------------------------------

 Thiophene-3-N2-UB3LYP-aug-cc-pVDZ-Duplet
 ----------------------------------------
 Redundant internal coordinates taken from checkpoint file:
 Thiophene-3-N2-UB3LYP-aug-cc-pVDZ-Duplet.chk
 Charge =  0 Multiplicity = 2

                         Standard orientation:
 ---------------------------------------------------------------------
 Center     Atomic      Atomic             Coordinates (Angstroms)
 Number     Number       Type             X           Y           Z
 ---------------------------------------------------------------------
      1          7           0       -2.114859    0.373400    0.000086
      2          7           0       -2.896673   -0.518472   -0.000231
      3          6           0       -0.678239    0.223367    0.000204
      4          6           0        0.167155    1.374906   -0.000045
      5          1           0       -0.211585    2.394629    0.000265
      6          6           0        1.492823    1.036023   -0.000103
      7          1           0        2.359649    1.690274   -0.000046
      8          6           0        0.007177   -0.970511    0.000175
      9          1           0       -0.401375   -1.976225    0.000212
     10         16           0        1.712534   -0.692243   -0.000050
 ---------------------------------------------------------------------

 SCF Done:  E(UB3LYP) =  -661.896259383     A.U. after    1 cycles

 The electronic state is 2-A.
 Alpha  occ. eigenvalues --  -88.94216 -14.42279 -14.39898 -10.25575 -10.24332
 Alpha  occ. eigenvalues --  -10.23952 -10.21955  -8.00227  -5.96538  -5.96171
 Alpha  occ. eigenvalues --   -5.95894  -1.07481  -0.91221  -0.79266  -0.75793
 Alpha  occ. eigenvalues --   -0.67140  -0.59716  -0.56336  -0.49542  -0.46693
 Alpha  occ. eigenvalues --   -0.45246  -0.44680  -0.42417  -0.39654  -0.39485
 Alpha  occ. eigenvalues --   -0.37582  -0.28126  -0.26659  -0.21075
 Alpha virt. eigenvalues --   -0.08168  -0.02744  -0.01138  -0.00911   0.00873
 Alpha virt. eigenvalues --    0.02327   0.02910   0.03895   0.03926   0.05000
 Alpha virt. eigenvalues --    0.05551   0.07580   0.08150   0.08612   0.09070

  Beta  occ. eigenvalues --  -88.94216 -14.41903 -14.38343 -10.25207 -10.24351
  Beta  occ. eigenvalues --  -10.23935 -10.21976  -8.00227  -5.96535  -5.96163
  Beta  occ. eigenvalues --   -5.95905  -1.05682  -0.91019  -0.78297  -0.75703
  Beta  occ. eigenvalues --   -0.65843  -0.59505  -0.56153  -0.47915  -0.44652
  Beta  occ. eigenvalues --   -0.44306  -0.43958  -0.41657  -0.39212  -0.37893
  Beta  occ. eigenvalues --   -0.36184  -0.27971  -0.26511
  Beta virt. eigenvalues --   -0.07396  -0.07059  -0.02441  -0.01084  -0.00846
  Beta virt. eigenvalues --    0.00878   0.02424   0.02955   0.03995   0.04122
  Beta virt. eigenvalues --    0.05181   0.05644   0.07571   0.08161   0.08658

 Mulliken atomic charges:
              1
     1  N    0.072131
     2  N   -0.601301
     3  C    0.584781
     4  C    0.981912
     5  H   -0.609661
     6  C   -0.038824
     7  H   -0.577961
     8  C    0.451106
     9  H   -0.659413
    10  S    0.397229
 Sum of Mulliken atomic charges =   0.00000

 Dipole moment (field-independent basis, Debye):
    X=              2.9926    Y=              0.5530    Z=              0.0005  Tot=              3.0433
 Quadrupole moment (field-independent basis, Debye-Ang):
   XX=            -54.0663   YY=            -42.7723   ZZ=            -49.3831
   XY=              0.7737   XZ=             -0.0011   YZ=              0.0000

  Exact polarizability: 111.563   2.046  82.179   0.000   0.000  49.092
 Approx polarizability: 186.812   3.027 147.176  -0.001   0.000  77.152

                     1                      2                      3
                     A                      A                      A
 Frequencies --    97.2368               224.3941               243.0935
 Red. masses --     8.6274                 8.5117                10.1691
 Frc consts  --     0.0481                 0.2525                 0.3541
 IR Inten    --     0.3489                 1.9164                 0.0168

                     4                      5                      6
                     A                      A                      A
 Frequencies --   458.2552               466.6554               574.2665
 Red. masses --     8.5455                 4.4255                13.1964
 Frc consts  --     1.0573                 0.5678                 2.5641
 IR Inten    --     1.7374                 0.0197                22.8455

                     7                      8                      9
                     A                      A                      A
 Frequencies --   608.9799               652.1214               687.5628
 Red. masses --     3.0020                 7.9550                 1.2283
 Frc consts  --     0.6559                 1.9932                 0.3421
 IR Inten    --    11.1881                 3.3692                10.7016

                    10                     11                     12
                     A                      A                      A
 Frequencies --   794.4795               819.2249               870.5544
 Red. masses --     1.3275                 5.4749                 3.7597
 Frc consts  --     0.4937                 2.1649                 1.6788
 IR Inten    --    71.1000                11.3566                13.0461

                    13                     14                     15
                     A                      A                      A
 Frequencies --   892.4123               927.6032              1079.1674
 Red. masses --     1.3188                 4.3661                 1.2023
 Frc consts  --     0.6188                 2.2135                 0.8250
 IR Inten    --     1.9940                 0.4572                 6.7528

                    16                     17                     18
                     A                      A                      A
 Frequencies --  1119.6891              1220.8036              1395.5231
 Red. masses --     1.6374                 1.4723                 2.8662
 Frc consts  --     1.2095                 1.2928                 3.2887
 IR Inten    --     9.5012                 2.5863                 1.7466

                    19                     20                     21
                     A                      A                      A
 Frequencies --  1455.5064              1530.9379              1837.3679
 Red. masses --     8.6715                 5.8419                13.8097
 Frc consts  --    10.8236                 8.0671                27.4679
 IR Inten    --    28.1517                 7.8447                32.3672

                    22                     23                     24
                     A                      A                      A
 Frequencies --  3226.7990              3257.3842              3262.9005
 Red. masses --     1.0911                 1.0995                 1.0953
 Frc consts  --     6.6938                 6.8738                 6.8709
 IR Inten    --     0.4920                 0.6854                 7.4502

 - Thermochemistry -
 -------------------
 Temperature   298.150 Kelvin.  Pressure   1.00000 Atm.
 Atom     1 has atomic number  7 and mass  14.00307

 Molecular mass:   111.00169 amu.
 Principal axes and moments of inertia in atomic units:
                           1         2         3
     Eigenvalues --   289.190721115.454381404.64509
           X            0.99983   0.01833   0.00000
           Y           -0.01833   0.99983   0.00000
           Z            0.00000   0.00000   1.00000
 This molecule is an asymmetric top.
 Rotational symmetry number  1.
 Rotational temperatures (Kelvin)      0.29950     0.07765     0.06166
 Rotational constants (GHZ):           6.24066     1.61794     1.28484
 Zero-point vibrational energy     165700.3 (Joules/Mol)
                                   39.60331 (Kcal/Mol)
 Warning -- explicit consideration of   7 degrees of freedom as
           vibrations may cause significant error
 Vibrational temperatures:    139.90   322.85   349.76   659.33   671.41
          (Kelvin)            826.24   876.19   938.26   989.25  1143.08
                             1178.68  1252.53  1283.98  1334.61  1552.68
                             1610.98  1756.46  2007.84  2094.15  2202.68
                             2643.56  4642.64  4686.64  4694.58

 Zero-point correction=                           0.063112 (Hartree/Particle)
 Thermal correction to Energy=                    0.069194
 Thermal correction to Enthalpy=                  0.070138
 Thermal correction to Gibbs Free Energy=         0.031936
 Sum of electronic and zero-point Energies=           -661.833147
 Sum of electronic and thermal Energies=              -661.827065
 Sum of electronic and thermal Enthalpies=            -661.826121
 Sum of electronic and thermal Free Energies=         -661.864323

                     E (Thermal)             CV                S
                      KCal/Mol        Cal/Mol-Kelvin    Cal/Mol-Kelvin
 Total                   43.420             21.867             80.403
 Electronic               0.000              0.000              1.377
 Translational            0.889              2.981             40.029
 Rotational               0.889              2.981             27.607
 Vibrational             41.642             15.905             11.390
 Vibration     1          0.603              1.951              3.509
 Vibration     2          0.649              1.804              1.923
 Vibration     3          0.659              1.774              1.780
 Vibration     4          0.816              1.343              0.771
 Vibration     5          0.824              1.324              0.747
 Vibration     6          0.931              1.087              0.496
 Vibration     7          0.968              1.013              0.434

 Optimization completed.
    -- Stationary point found.
 Normal termination of Gaussian 09 at Wed Mar  7 17:19:55 2018.
